       N       E                     dE             d eps       ncg     rms          rms(c)
DAV:   1    -0.355427411660E+03   -0.35543E+03   -0.37785E-03 45408   0.251E-01    0.416E-01
DAV:   2    -0.355426381932E+03    0.10297E-02   -0.14771E-03 34896   0.172E-01    0.802E-02
DAV:   3    -0.355426613165E+03   -0.23123E-03   -0.64199E-04 25416   0.776E-02    0.714E-02
DAV:   4    -0.355426556784E+03    0.56382E-04   -0.94977E-05 24960   0.459E-02    0.439E-02
DAV:   5    -0.355426567301E+03   -0.10518E-04   -0.47791E-05 24576   0.223E-02    0.298E-02
DAV:   6    -0.355426564469E+03    0.28323E-05   -0.52649E-06 24648   0.111E-02    0.580E-03
DAV:   7    -0.355426564958E+03   -0.48936E-06   -0.26673E-06 24312   0.555E-03    0.471E-03
DAV:   8    -0.355426564768E+03    0.18987E-06   -0.43047E-07 24264   0.265E-03
   1 F= -.35542656E+03 E0= -.35542656E+03  d E =-.653886E-14
 imaginary and real dielectric function
