 vasp.5.4.1 05Feb16 (build Sep 26 2016 13:24:05) complex                        
  
 executed on      IFC91_craympich date 2017.06.13  19:39:01
 running on  144 total cores
 distrk:  each k-point on   24 cores,    6 groups
 distr:  one band on NCORES_PER_BAND=   1 cores,   24 groups


--------------------------------------------------------------------------------------------------------


 INCAR:
 POTCAR:    PAW_PBE W 08Apr2002                   
 POTCAR:    PAW_PBE O 08Apr2002                   

 ----------------------------------------------------------------------------- 
|                                                                             |
|           W    W    AA    RRRRR   N    N  II  N    N   GGGG   !!!           |
|           W    W   A  A   R    R  NN   N  II  NN   N  G    G  !!!           |
|           W    W  A    A  R    R  N N  N  II  N N  N  G       !!!           |
|           W WW W  AAAAAA  RRRRR   N  N N  II  N  N N  G  GGG   !            |
|           WW  WW  A    A  R   R   N   NN  II  N   NN  G    G                |
|           W    W  A    A  R    R  N    N  II  N    N   GGGG   !!!           |
|                                                                             |
|      For optimal performance we recommend to set                            |
|        NCORE= 4 - approx SQRT( number of cores)                             |
|      NCORE specifies how many cores store one orbital (NPAR=cpu/NCORE).     |
|      This setting can  greatly improve the performance of VASP for DFT.     |
|      The default, NPAR=number of cores might be grossly inefficient         |
|      on modern multi-core architectures or massively parallel machines.     |
|      Do your own testing !!!!                                               |
|      Unfortunately you need to use the default for GW and RPA calculations. |
|      (for HF NCORE is supported but not extensively tested yet)             |
|                                                                             |
 ----------------------------------------------------------------------------- 


 ----------------------------------------------------------------------------- 
|                                                                             |
|           W    W    AA    RRRRR   N    N  II  N    N   GGGG   !!!           |
|           W    W   A  A   R    R  NN   N  II  NN   N  G    G  !!!           |
|           W    W  A    A  R    R  N N  N  II  N N  N  G       !!!           |
|           W WW W  AAAAAA  RRRRR   N  N N  II  N  N N  G  GGG   !            |
|           WW  WW  A    A  R   R   N   NN  II  N   NN  G    G                |
|           W    W  A    A  R    R  N    N  II  N    N   GGGG   !!!           |
|                                                                             |
|      You have enabled k-point parallelism (KPAR>1).                         |
|      This developmental code was originally  written by Paul Kent at ORNL,  |
|      and carefully double checked in Vienna.                                |
|      GW as well as linear response parallelism added by Martijn Marsman     |
|      and Georg Kresse.                                                      |
|      Carefully verify results versus KPAR=1.                                |
|      Report problems to Paul Kent and Vienna.                               |
|                                                                             |
 ----------------------------------------------------------------------------- 

 POTCAR:    PAW_PBE W 08Apr2002                   
   VRHFIN =W : 6s5d                                                             
   LEXCH  = PE                                                                  
   EATOM  =   204.6103 eV,   15.0384 Ry                                         
                                                                                
   TITEL  = PAW_PBE W 08Apr2002                                                 
   LULTRA =        F    use ultrasoft PP ?                                      
   IUNSCR =        1    unscreen: 0-lin 1-nonlin 2-no                           
   RPACOR =    2.330    partial core radius                                     
   POMASS =  183.850; ZVAL   =    6.000    mass and valenz                      
   RCORE  =    2.750    outmost cutoff radius                                   
   RWIGS  =    2.750; RWIGS  =    1.455    wigner-seitz radius (au A)           
   ENMAX  =  223.057; ENMIN  =  167.293 eV                                      
   RCLOC  =    2.147    cutoff for local pot                                    
   LCOR   =        T    correct aug charges                                     
   LPAW   =        T    paw PP                                                  
   EAUG   =  373.438                                                            
   DEXC   =    0.000                                                            
   RMAX   =    2.801    core radius for proj-oper                               
   RAUG   =    1.300    factor for augmentation sphere                          
   RDEP   =    2.886    radius for radial grids                                 
   RDEPT  =    2.230    core radius for aug-charge                              
                                                                                
   Atomic configuration                                                         
   16 entries                                                                   
     n  l   j            E        occ.                                          
     1  0  0.50    -69465.5836   2.0000                                         
     2  0  0.50    -11986.2642   2.0000                                         
     2  1  1.50    -10479.8616   6.0000                                         
     3  0  0.50     -2759.0758   2.0000                                         
     3  1  1.50     -2313.1857   6.0000                                         
     3  2  2.50     -1801.1185  10.0000                                         
     4  0  0.50      -567.6791   2.0000                                         
     4  1  1.50      -421.4694   6.0000                                         
     4  2  2.50      -236.3473  10.0000                                         
     4  3  3.50       -31.2666  14.0000                                         
     5  0  0.50       -77.1085   2.0000                                         
     5  1  1.50       -41.3856   6.0000                                         
     5  2  2.50        -3.3185   5.0000                                         
     6  0  0.50        -5.1438   1.0000                                         
     6  1  0.50        -3.8096   0.0000                                         
     5  3  2.50        -1.3606   0.0000                                         
   Description                                                                  
     l       E           TYP  RCUT    TYP  RCUT                                 
     2     -3.3185288     23  2.500                                             
     2     -1.5965414     23  2.500                                             
     0     -5.1438054     23  2.500                                             
     0      4.9117504     23  2.500                                             
     1      2.7211652     23  2.750                                             
     1     27.2116520     23  2.750                                             
  local pseudopotential read in
  partial core-charges read in
  partial kinetic energy density read in
  atomic valenz-charges read in
  non local Contribution for L=           2  read in
    real space projection operators read in
  non local Contribution for L=           2  read in
    real space projection operators read in
  non local Contribution for L=           0  read in
    real space projection operators read in
  non local Contribution for L=           0  read in
    real space projection operators read in
  non local Contribution for L=           1  read in
    real space projection operators read in
  non local Contribution for L=           1  read in
    real space projection operators read in
    PAW grid and wavefunctions read in
 
   number of l-projection  operators is LMAX  =           6
   number of lm-projection operators is LMMAX =          18
 
 POTCAR:    PAW_PBE O 08Apr2002                   
   VRHFIN =O: s2p4                                                              
   LEXCH  = PE                                                                  
   EATOM  =   432.3788 eV,   31.7789 Ry                                         
                                                                                
   TITEL  = PAW_PBE O 08Apr2002                                                 
   LULTRA =        F    use ultrasoft PP ?                                      
   IUNSCR =        1    unscreen: 0-lin 1-nonlin 2-no                           
   RPACOR =    1.200    partial core radius                                     
   POMASS =   16.000; ZVAL   =    6.000    mass and valenz                      
   RCORE  =    1.520    outmost cutoff radius                                   
   RWIGS  =    1.550; RWIGS  =    0.820    wigner-seitz radius (au A)           
   ENMAX  =  400.000; ENMIN  =  300.000 eV                                      
   ICORE  =        2    local potential                                         
   LCOR   =        T    correct aug charges                                     
   LPAW   =        T    paw PP                                                  
   EAUG   =  605.392                                                            
   DEXC   =    0.000                                                            
   RMAX   =    1.553    core radius for proj-oper                               
   RAUG   =    1.300    factor for augmentation sphere                          
   RDEP   =    1.550    radius for radial grids                                 
   RDEPT  =    1.329    core radius for aug-charge                              
                                                                                
   Atomic configuration                                                         
    4 entries                                                                   
     n  l   j            E        occ.                                          
     1  0  0.50      -514.6923   2.0000                                         
     2  0  0.50       -23.9615   2.0000                                         
     2  1  0.50        -9.0305   4.0000                                         
     3  2  1.50        -9.5241   0.0000                                         
   Description                                                                  
     l       E           TYP  RCUT    TYP  RCUT                                 
     0    -23.9615318     23  1.200                                             
     0     -9.5240782     23  1.200                                             
     1     -9.0304911     23  1.520                                             
     1      8.1634956     23  1.520                                             
     2     -9.5240782      7  1.500                                             
  local pseudopotential read in
  partial core-charges read in
  partial kinetic energy density read in
  kinetic energy density of atom read in
  atomic valenz-charges read in
  non local Contribution for L=           0  read in
    real space projection operators read in
  non local Contribution for L=           0  read in
    real space projection operators read in
  non local Contribution for L=           1  read in
    real space projection operators read in
  non local Contribution for L=           1  read in
    real space projection operators read in
    PAW grid and wavefunctions read in
 
   number of l-projection  operators is LMAX  =           4
   number of lm-projection operators is LMMAX =           8
 

 ----------------------------------------------------------------------------- 
|                                                                             |
|  ADVICE TO THIS USER RUNNING 'VASP/VAMP'   (HEAR YOUR MASTER'S VOICE ...):  |
|                                                                             |
|      You have a (more or less) 'large supercell' and for larger cells       |
|      it might be more efficient to use real space projection opertators     |
|      So try LREAL= Auto  in the INCAR   file.                               |
|      Mind: At the moment your POTCAR file does not contain real space       |
|       projectors, and has to be modified,  BUT if you                       |
|      want to do an extremely  accurate calculation you might also keep the  |
|      reciprocal projection scheme          (i.e. LREAL=.FALSE.)             |
|                                                                             |
 ----------------------------------------------------------------------------- 

  PAW_PBE W 08Apr2002                   :
 energy of atom  1       EATOM= -204.6103
 kinetic energy error for atom=    0.0017 (will be added to EATOM!!)
  PAW_PBE O 08Apr2002                   :
 energy of atom  2       EATOM= -432.3788
 kinetic energy error for atom=    0.0224 (will be added to EATOM!!)
 
 
 POSCAR: WO3bulkRT      !Header                  
  positions in direct lattice
  velocities in cartesian coordinates
 exchange correlation table for  LEXCH =        8
   RHO(1)=    0.500       N(1)  =     2000
   RHO(2)=  100.500       N(2)  =     4000
 


--------------------------------------------------------------------------------------------------------


 ion  position               nearest neighbor table
   1  0.249  0.529  0.218-  30 1.75  17 1.77  14 1.88   9 1.90  18 2.09  25 2.16
   2  0.251  0.029  0.282-  29 1.75  18 1.77  13 1.88  10 1.90  17 2.09  26 2.16
   3  0.749  0.971  0.718-  32 1.75  19 1.77  16 1.88  11 1.90  20 2.09  27 2.16
   4  0.751  0.471  0.782-  31 1.75  20 1.77  15 1.88  12 1.90  19 2.09  28 2.16
   5  0.251  0.531  0.720-  25 1.75  21 1.77  12 1.88  15 1.90  22 2.08  30 2.16
   6  0.249  0.031  0.780-  26 1.75  22 1.77  11 1.88  16 1.90  21 2.08  29 2.16
   7  0.751  0.969  0.220-  27 1.75  23 1.77  10 1.88  13 1.90  24 2.08  32 2.16
   8  0.749  0.469  0.280-  28 1.75  24 1.77   9 1.88  14 1.90  23 2.08  31 2.16
   9  0.500  0.518  0.264-   8 1.88   1 1.90
  10  1.000  0.018  0.236-   7 1.88   2 1.90
  11  0.000  0.982  0.764-   6 1.88   3 1.90
  12  0.500  0.482  0.736-   5 1.88   4 1.90
  13  0.500  0.982  0.263-   2 1.88   7 1.90
  14  0.000  0.482  0.237-   1 1.88   8 1.90
  15  1.000  0.518  0.763-   4 1.88   5 1.90
  16  0.500  0.018  0.737-   3 1.88   6 1.90
  17  0.232  0.760  0.236-   1 1.77   2 2.09
  18  0.268  0.260  0.264-   2 1.77   1 2.09
  19  0.732  0.740  0.736-   3 1.77   4 2.09
  20  0.768  0.240  0.764-   4 1.77   3 2.09
  21  0.269  0.760  0.754-   5 1.77   6 2.08
  22  0.231  0.260  0.746-   6 1.77   5 2.08
  23  0.769  0.740  0.254-   7 1.77   8 2.08
  24  0.731  0.240  0.246-   8 1.77   7 2.08
  25  0.236  0.523  0.495-   5 1.75   1 2.16
  26  0.264  0.023  0.005-   6 1.75   2 2.16
  27  0.736  0.977  0.995-   7 1.75   3 2.16
  28  0.764  0.477  0.505-   8 1.75   4 2.16
  29  0.236  0.005  0.505-   2 1.75   6 2.16
  30  0.264  0.505  0.995-   1 1.75   5 2.16
  31  0.736  0.495  0.005-   4 1.75   8 2.16
  32  0.764  0.995  0.495-   3 1.75   7 2.16
 
  LATTYP: Found a simple monoclinic cell.
 ALAT       =    10.7391944190
 B/A-ratio  =     0.7108187815
 C/A-ratio  =     1.6054960404
 COS(beta)  =    -0.9501424934
  
  Lattice vectors:
  
 A1 = (  -7.3377257095,   0.0000021312,  -7.8414334263)
 A2 = (   0.0000024131,  -7.6336210908,  -0.0000022954)
 A3 = (   7.2677599434,   0.0000002114,  15.6351226657)


Analysis of symmetry for initial positions (statically):
=====================================================================
 Subroutine PRICEL returns:
 Original cell was already a primitive cell.
 

 Routine SETGRP: Setting up the symmetry group for a 
 simple monoclinic supercell.


 Subroutine GETGRP returns: Found  2 space group operations
 (whereof  2 operations were pure point group operations)
 out of a pool of  4 trial point group operations.


The static configuration has the point symmetry S_2 .


Analysis of symmetry for dynamics (positions and initial velocities):
=====================================================================
 Subroutine PRICEL returns:
 Original cell was already a primitive cell.
 

 Routine SETGRP: Setting up the symmetry group for a 
 simple monoclinic supercell.


 Subroutine GETGRP returns: Found  2 space group operations
 (whereof  2 operations were pure point group operations)
 out of a pool of  4 trial point group operations.


The dynamic configuration has the point symmetry S_2 .


 Subroutine INISYM returns: Found  2 space group operations
 (whereof  2 operations are pure point group operations),
 and found     1 'primitive' translations

 
 
 KPOINTS: KPOINTS BSC FILE                        
  k-points in reciprocal lattice
Space group operators:
 irot       det(A)        alpha          n_x          n_y          n_z        tau_x        tau_y        tau_z
    1     1.000000     0.000002     1.000000     0.000000     0.000000     0.000000     0.000000     0.000000
    2    -1.000000     0.000002     1.000000     0.000000     0.000000     0.000000     0.000000     0.000000

 ----------------------------------------------------------------------------- 
|                                                                             |
|           W    W    AA    RRRRR   N    N  II  N    N   GGGG   !!!           |
|           W    W   A  A   R    R  NN   N  II  NN   N  G    G  !!!           |
|           W    W  A    A  R    R  N N  N  II  N N  N  G       !!!           |
|           W WW W  AAAAAA  RRRRR   N  N N  II  N  N N  G  GGG   !            |
|           WW  WW  A    A  R   R   N   NN  II  N   NN  G    G                |
|           W    W  A    A  R    R  N    N  II  N    N   GGGG   !!!           |
|                                                                             |
|      Your generating k-point grid is not commensurate to the symmetry       |
|      of the lattice.  This can cause   slow convergence with respect        |
|      to k-points for HF type calculations                                   |
|      suggested SOLUTIONS:                                                   |
|       ) if not already the case, use automatic k-point generation           |
|       ) shift your grid to Gamma (G) (e.g. required for hex or fcc lattice) |
|                                                                             |
 ----------------------------------------------------------------------------- 

 
 Subroutine IBZKPT_HF returns following result:
 ==============================================
 
 Found    181 k-points in 1st BZ
 the following    181 k-points will be used (e.g. in the exchange kernel)
 Following reciprocal coordinates:   # in IRBZ
  0.125000  0.125000  0.125000    0.01562500   1 t-inv F
  0.375000  0.125000  0.125000    0.01562500   2 t-inv F
 -0.375000  0.125000  0.125000    0.01562500   3 t-inv F
 -0.125000  0.125000  0.125000    0.01562500   4 t-inv F
  0.125000  0.375000  0.125000    0.01562500   5 t-inv F
  0.375000  0.375000  0.125000    0.01562500   6 t-inv F
 -0.375000  0.375000  0.125000    0.01562500   7 t-inv F
 -0.125000  0.375000  0.125000    0.01562500   8 t-inv F
  0.125000 -0.375000  0.125000    0.01562500   9 t-inv F
  0.375000 -0.375000  0.125000    0.01562500  10 t-inv F
 -0.375000 -0.375000  0.125000    0.01562500  11 t-inv F
 -0.125000 -0.375000  0.125000    0.01562500  12 t-inv F
  0.125000 -0.125000  0.125000    0.01562500  13 t-inv F
  0.375000 -0.125000  0.125000    0.01562500  14 t-inv F
 -0.375000 -0.125000  0.125000    0.01562500  15 t-inv F
 -0.125000 -0.125000  0.125000    0.01562500  16 t-inv F
  0.125000  0.125000  0.375000    0.01562500  17 t-inv F
  0.375000  0.125000  0.375000    0.01562500  18 t-inv F
 -0.375000  0.125000  0.375000    0.01562500  19 t-inv F
 -0.125000  0.125000  0.375000    0.01562500  20 t-inv F
  0.125000  0.375000  0.375000    0.01562500  21 t-inv F
  0.375000  0.375000  0.375000    0.01562500  22 t-inv F
 -0.375000  0.375000  0.375000    0.01562500  23 t-inv F
 -0.125000  0.375000  0.375000    0.01562500  24 t-inv F
  0.125000 -0.375000  0.375000    0.01562500  25 t-inv F
  0.375000 -0.375000  0.375000    0.01562500  26 t-inv F
 -0.375000 -0.375000  0.375000    0.01562500  27 t-inv F
 -0.125000 -0.375000  0.375000    0.01562500  28 t-inv F
  0.125000 -0.125000  0.375000    0.01562500  29 t-inv F
  0.375000 -0.125000  0.375000    0.01562500  30 t-inv F
 -0.375000 -0.125000  0.375000    0.01562500  31 t-inv F
 -0.125000 -0.125000  0.375000    0.01562500  32 t-inv F
  0.000000  0.000000  0.000000    0.00000000  33 t-inv F
  0.000000  0.000000  0.041667    0.00000000  34 t-inv F
  0.000000  0.000000  0.083333    0.00000000  35 t-inv F
  0.000000  0.000000  0.125000    0.00000000  36 t-inv F
  0.000000  0.000000  0.166667    0.00000000  37 t-inv F
  0.000000  0.000000  0.208333    0.00000000  38 t-inv F
  0.000000  0.000000  0.250000    0.00000000  39 t-inv F
  0.000000  0.000000  0.291667    0.00000000  40 t-inv F
  0.000000  0.000000  0.333333    0.00000000  41 t-inv F
  0.000000  0.000000  0.375000    0.00000000  42 t-inv F
  0.000000  0.000000  0.416667    0.00000000  43 t-inv F
  0.000000  0.000000  0.458333    0.00000000  44 t-inv F
  0.000000  0.000000  0.500000    0.00000000  45 t-inv F
  0.000000  0.038369  0.500102    0.00000000  46 t-inv F
  0.000000  0.076738  0.500204    0.00000000  47 t-inv F
  0.000000  0.115108  0.500307    0.00000000  48 t-inv F
  0.000000  0.153477  0.500409    0.00000000  49 t-inv F
  0.000000  0.191846  0.500511    0.00000000  50 t-inv F
  0.000000  0.230215  0.500613    0.00000000  51 t-inv F
  0.000000  0.268585  0.500716    0.00000000  52 t-inv F
  0.000000  0.306954  0.500818    0.00000000  53 t-inv F
  0.000000  0.345323  0.500920    0.00000000  54 t-inv F
  0.000000  0.383692  0.501022    0.00000000  55 t-inv F
  0.000000  0.422062  0.501125    0.00000000  56 t-inv F
  0.000000  0.460431  0.501227    0.00000000  57 t-inv F
  0.000000  0.498800  0.501329    0.00000000  58 t-inv F
  0.000000  0.500000  0.500000    0.00000000  59 t-inv F
  0.038462  0.500000  0.500000    0.00000000  60 t-inv F
  0.076923  0.500000  0.500000    0.00000000  61 t-inv F
  0.115385  0.500000  0.500000    0.00000000  62 t-inv F
  0.153846  0.500000  0.500000    0.00000000  63 t-inv F
  0.192308  0.500000  0.500000    0.00000000  64 t-inv F
  0.230769  0.500000  0.500000    0.00000000  65 t-inv F
  0.269231  0.500000  0.500000    0.00000000  66 t-inv F
  0.307692  0.500000  0.500000    0.00000000  67 t-inv F
  0.346154  0.500000  0.500000    0.00000000  68 t-inv F
  0.384615  0.500000  0.500000    0.00000000  69 t-inv F
  0.423077  0.500000  0.500000    0.00000000  70 t-inv F
  0.461538  0.500000  0.500000    0.00000000  71 t-inv F
  0.500000  0.500000  0.500000    0.00000000  72 t-inv F
  0.500000  0.501200  0.498671    0.00000000  73 t-inv F
  0.500000  0.501100  0.457115    0.00000000  74 t-inv F
  0.500000  0.501000  0.415559    0.00000000  75 t-inv F
  0.500000  0.500900  0.374003    0.00000000  76 t-inv F
  0.500000  0.500800  0.332447    0.00000000  77 t-inv F
  0.500000  0.500700  0.290891    0.00000000  78 t-inv F
  0.500000  0.500600  0.249335    0.00000000  79 t-inv F
  0.500000  0.500500  0.207780    0.00000000  80 t-inv F
  0.500000  0.500400  0.166224    0.00000000  81 t-inv F
  0.500000  0.500300  0.124668    0.00000000  82 t-inv F
  0.500000  0.500200  0.083112    0.00000000  83 t-inv F
  0.500000  0.500100  0.041556    0.00000000  84 t-inv F
  0.500000  0.500000  0.000000    0.00000000  85 t-inv F
  0.461538  0.500000  0.000000    0.00000000  86 t-inv F
  0.423077  0.500000  0.000000    0.00000000  87 t-inv F
  0.384615  0.500000  0.000000    0.00000000  88 t-inv F
  0.346154  0.500000  0.000000    0.00000000  89 t-inv F
  0.307692  0.500000  0.000000    0.00000000  90 t-inv F
  0.269231  0.500000  0.000000    0.00000000  91 t-inv F
  0.230769  0.500000  0.000000    0.00000000  92 t-inv F
  0.192308  0.500000  0.000000    0.00000000  93 t-inv F
  0.153846  0.500000  0.000000    0.00000000  94 t-inv F
  0.115385  0.500000  0.000000    0.00000000  95 t-inv F
  0.076923  0.500000  0.000000    0.00000000  96 t-inv F
  0.038462  0.500000  0.000000    0.00000000  97 t-inv F
  0.000000  0.500000  0.000000    0.00000000  98 t-inv F
  0.000000  0.461538  0.000000    0.00000000  99 t-inv F
  0.000000  0.423077  0.000000    0.00000000 100 t-inv F
  0.000000  0.384615  0.000000    0.00000000 101 t-inv F
  0.000000  0.346154  0.000000    0.00000000 102 t-inv F
  0.000000  0.307692  0.000000    0.00000000 103 t-inv F
  0.000000  0.269231  0.000000    0.00000000 104 t-inv F
  0.000000  0.230769  0.000000    0.00000000 105 t-inv F
  0.000000  0.192308  0.000000    0.00000000 106 t-inv F
  0.000000  0.153846  0.000000    0.00000000 107 t-inv F
  0.000000  0.115385  0.000000    0.00000000 108 t-inv F
  0.000000  0.076923  0.000000    0.00000000 109 t-inv F
  0.000000  0.038462  0.000000    0.00000000 110 t-inv F
  0.000000  0.000000  0.000000    0.00000000 111 t-inv F
  0.038462  0.000000  0.000000    0.00000000 112 t-inv F
  0.076923  0.000000  0.000000    0.00000000 113 t-inv F
  0.115385  0.000000  0.000000    0.00000000 114 t-inv F
  0.153846  0.000000  0.000000    0.00000000 115 t-inv F
  0.192308  0.000000  0.000000    0.00000000 116 t-inv F
  0.230769  0.000000  0.000000    0.00000000 117 t-inv F
  0.269231  0.000000  0.000000    0.00000000 118 t-inv F
  0.307692  0.000000  0.000000    0.00000000 119 t-inv F
  0.346154  0.000000  0.000000    0.00000000 120 t-inv F
  0.384615  0.000000  0.000000    0.00000000 121 t-inv F
  0.423077  0.000000  0.000000    0.00000000 122 t-inv F
  0.461538  0.000000  0.000000    0.00000000 123 t-inv F
  0.500000  0.000000  0.000000    0.00000000 124 t-inv F
  0.500000  0.000000  0.041667    0.00000000 125 t-inv F
  0.500000  0.000000  0.083333    0.00000000 126 t-inv F
  0.500000  0.000000  0.125000    0.00000000 127 t-inv F
  0.500000  0.000000  0.166667    0.00000000 128 t-inv F
  0.500000  0.000000  0.208333    0.00000000 129 t-inv F
  0.500000  0.000000  0.250000    0.00000000 130 t-inv F
  0.500000  0.000000  0.291667    0.00000000 131 t-inv F
  0.500000  0.000000  0.333333    0.00000000 132 t-inv F
  0.500000  0.000000  0.375000    0.00000000 133 t-inv F
  0.500000  0.000000  0.416667    0.00000000 134 t-inv F
  0.500000  0.000000  0.458333    0.00000000 135 t-inv F
  0.500000  0.000000  0.500000    0.00000000 136 t-inv F
  0.500000  0.038369  0.500102    0.00000000 137 t-inv F
  0.500000  0.076738  0.500204    0.00000000 138 t-inv F
  0.500000  0.115108  0.500307    0.00000000 139 t-inv F
  0.500000  0.153477  0.500409    0.00000000 140 t-inv F
  0.500000  0.191846  0.500511    0.00000000 141 t-inv F
  0.500000  0.230215  0.500613    0.00000000 142 t-inv F
  0.500000  0.268585  0.500716    0.00000000 143 t-inv F
  0.500000  0.306954  0.500818    0.00000000 144 t-inv F
  0.500000  0.345323  0.500920    0.00000000 145 t-inv F
  0.500000  0.383692  0.501022    0.00000000 146 t-inv F
  0.500000  0.422062  0.501125    0.00000000 147 t-inv F
  0.500000  0.460431  0.501227    0.00000000 148 t-inv F
  0.500000  0.498800  0.501329    0.00000000 149 t-inv F
 -0.125000 -0.125000 -0.125000    0.01562500   1 t-inv F
 -0.375000 -0.125000 -0.125000    0.01562500   2 t-inv F
  0.375000 -0.125000 -0.125000    0.01562500   3 t-inv F
  0.125000 -0.125000 -0.125000    0.01562500   4 t-inv F
 -0.125000 -0.375000 -0.125000    0.01562500   5 t-inv F
 -0.375000 -0.375000 -0.125000    0.01562500   6 t-inv F
  0.375000 -0.375000 -0.125000    0.01562500   7 t-inv F
  0.125000 -0.375000 -0.125000    0.01562500   8 t-inv F
 -0.125000  0.375000 -0.125000    0.01562500   9 t-inv F
 -0.375000  0.375000 -0.125000    0.01562500  10 t-inv F
  0.375000  0.375000 -0.125000    0.01562500  11 t-inv F
  0.125000  0.375000 -0.125000    0.01562500  12 t-inv F
 -0.125000  0.125000 -0.125000    0.01562500  13 t-inv F
 -0.375000  0.125000 -0.125000    0.01562500  14 t-inv F
  0.375000  0.125000 -0.125000    0.01562500  15 t-inv F
  0.125000  0.125000 -0.125000    0.01562500  16 t-inv F
 -0.125000 -0.125000 -0.375000    0.01562500  17 t-inv F
 -0.375000 -0.125000 -0.375000    0.01562500  18 t-inv F
  0.375000 -0.125000 -0.375000    0.01562500  19 t-inv F
  0.125000 -0.125000 -0.375000    0.01562500  20 t-inv F
 -0.125000 -0.375000 -0.375000    0.01562500  21 t-inv F
 -0.375000 -0.375000 -0.375000    0.01562500  22 t-inv F
  0.375000 -0.375000 -0.375000    0.01562500  23 t-inv F
  0.125000 -0.375000 -0.375000    0.01562500  24 t-inv F
 -0.125000  0.375000 -0.375000    0.01562500  25 t-inv F
 -0.375000  0.375000 -0.375000    0.01562500  26 t-inv F
  0.375000  0.375000 -0.375000    0.01562500  27 t-inv F
  0.125000  0.375000 -0.375000    0.01562500  28 t-inv F
 -0.125000  0.125000 -0.375000    0.01562500  29 t-inv F
 -0.375000  0.125000 -0.375000    0.01562500  30 t-inv F
  0.375000  0.125000 -0.375000    0.01562500  31 t-inv F
  0.125000  0.125000 -0.375000    0.01562500  32 t-inv F


--------------------------------------------------------------------------------------------------------




 Dimension of arrays:
   k-points           NKPTS =    149   k-points in BZ     NKDIM =    181   number of bands    NBANDS=    144
   number of dos      NEDOS =   3000   number of ions     NIONS =     32
   non local maximal  LDIM  =      6   non local SUM 2l+1 LMDIM =     18
   total plane-waves  NPLWV =  84672
   max r-space proj   IRMAX =      1   max aug-charges    IRDMAX=  11164
   dimension x,y,z NGX =    42 NGY =   42 NGZ =   48
   dimension x,y,z NGXF=    84 NGYF=   84 NGZF=   96
   support grid    NGXF=    84 NGYF=   84 NGZF=   96
   ions per type =               8  24
 NGX,Y,Z   is equivalent  to a cutoff of   9.43,  9.15, 10.24 a.u.
 NGXF,Y,Z  is equivalent  to a cutoff of  18.85, 18.29, 20.48 a.u.


 I would recommend the setting:
   dimension x,y,z NGX =    41 NGY =   42 NGZ =   43
 SYSTEM =  WO3bulkRT      !Header                  
 POSCAR =  WO3bulkRT      !Header                  

 Startparameter for this run:
   NWRITE =      2    write-flag & timer
   PREC   = normal    normal or accurate (medium, high low for compatibility)
   ISTART =      1    job   : 0-new  1-cont  2-samecut
   ICHARG =      0    charge: 1-file 2-atom 10-const
   ISPIN  =      1    spin polarized calculation?
   LNONCOLLINEAR =      F non collinear calculations
   LSORBIT =      F    spin-orbit coupling
   INIWAV =      1    electr: 0-lowe 1-rand  2-diag
   LASPH  =      F    aspherical Exc in radial PAW
   METAGGA=      F    non-selfconsistent MetaGGA calc.

 Electronic Relaxation 1
   ENCUT  =  500.0 eV  36.75 Ry    6.06 a.u.  13.51 13.92 14.21*2*pi/ulx,y,z
   ENINI  =  500.0     initial cutoff
   ENAUG  =  605.4 eV  augmentation charge cutoff
   NELM   =     30;   NELMIN=  8; NELMDL=  0     # of ELM steps 
   EDIFF  = 0.1E-02   stopping-criterion for ELM
   LREAL  =      F    real-space projection
   NLSPLINE    = F    spline interpolate recip. space projectors
   LCOMPAT=      F    compatible to vasp.4.4
   GGA_COMPAT  = T    GGA compatible to vasp.4.4-vasp.4.6
   LMAXPAW     = -100 max onsite density
   LMAXMIX     =    2 max onsite mixed and CHGCAR
   VOSKOWN=      0    Vosko Wilk Nusair interpolation
   ROPT   =    0.00000   0.00000
 Ionic relaxation
   EDIFFG = -.4E-01   stopping-criterion for IOM
   NSW    =      0    number of steps for IOM
   NBLOCK =      1;   KBLOCK =      1    inner block; outer block 
   IBRION =     -1    ionic relax: 0-MD 1-quasi-New 2-CG
   NFREE  =      0    steps in history (QN), initial steepest desc. (CG)
   ISIF   =      3    stress and relaxation
   IWAVPR =     10    prediction:  0-non 1-charg 2-wave 3-comb
   ISYM   =      3    0-nonsym 1-usesym 2-fastsym
   LCORR  =      T    Harris-Foulkes like correction to forces

   POTIM  = 0.5000    time-step for ionic-motion
   TEIN   =    0.0    initial temperature
   TEBEG  =    0.0;   TEEND  =   0.0 temperature during run
   SMASS  =  -3.00    Nose mass-parameter (am)
   estimated Nose-frequenzy (Omega)   =  0.10E-29 period in steps =****** mass=  -0.125E-26a.u.
   SCALEE = 1.0000    scale energy and forces
   NPACO  =    256;   APACO  = 16.0  distance and # of slots for P.C.
   PSTRESS=    0.0 pullay stress

  Mass of Ions in am
   POMASS = 183.85 16.00
  Ionic Valenz
   ZVAL   =   6.00  6.00
  Atomic Wigner-Seitz radii
   RWIGS  =  -1.00 -1.00
  virtual crystal weights 
   VCA    =   1.00  1.00
   NELECT =     192.0000    total number of electrons
   NUPDOWN=      -1.0000    fix difference up-down

 DOS related values:
   EMIN   =  10.00;   EMAX   =-10.00  energy-range for DOS
   EFERMI =   0.00
   ISMEAR =     0;   SIGMA  =   0.01  broadening in eV -4-tet -1-fermi 0-gaus

 Electronic relaxation 2 (details)
   IALGO  =     38    algorithm
   LDIAG  =      T    sub-space diagonalisation (order eigenvalues)
   LSUBROT=      F    optimize rotation matrix (better conditioning)
   TURBO    =      0    0=normal 1=particle mesh
   IRESTART =      0    0=no restart 2=restart with 2 vectors
   NREBOOT  =      0    no. of reboots
   NMIN     =      0    reboot dimension
   EREF     =   0.00    reference energy to select bands
   IMIX   =      1    mixing-type and parameters
     AMIX     =   0.40;   BMIX     =  1.00
     AMIX_MAG =   1.60;   BMIX_MAG =  1.00
     AMIN     =   0.10
     WC   =   100.;   INIMIX=   1;  MIXPRE=   1;  MAXMIX= -45

 Intra band minimization:
   WEIMIN = 0.0000     energy-eigenvalue tresh-hold
   EBREAK =  0.17E-05  absolut break condition
   DEPER  =   0.30     relativ break condition  

   TIME   =   0.40     timestep for ELM

  volume/ion in A,a.u.               =      13.77        92.95
  Fermi-wavevector in a.u.,A,eV,Ry     =   1.241027  2.345202 20.954997  1.540149
  Thomas-Fermi vector in A             =   2.375443
 
 Write flags
   LWAVE  =      T    write WAVECAR
   LCHARG =      T    write CHGCAR
   LVTOT  =      F    write LOCPOT, total local potential
   LVHAR  =      F    write LOCPOT, Hartree potential only
   LELF   =      F    write electronic localiz. function (ELF)
   LORBIT =      0    0 simple, 1 ext, 2 COOP (PROOUT)


 Dipole corrections
   LMONO  =      F    monopole corrections only (constant potential shift)
   LDIPOL =      F    correct potential (dipole corrections)
   IDIPOL =      0    1-x, 2-y, 3-z, 4-all directions 
   EPSILON=  1.0000000 bulk dielectric constant

 Exchange correlation treatment:
   GGA     =    --    GGA type
   LEXCH   =     8    internal setting for exchange type
   VOSKOWN=      0    Vosko Wilk Nusair interpolation
   EXXOEP  =     0    0=HF, 1=EXX-LHF (local Hartree Fock) 2=EXX OEP
   LHFCALC =     T    Hartree Fock is set to
   LSYMGRAD=     F    symmetrize gradient (conserves proper symmetry)
   PRECFOCK=fast      Normal, Fast or Accurate (Low or Medium for compatibility)
   LRHFCALC=     F    long range Hartree Fock
   LRSCOR  =     F    long range correlation only (use DFT for short range part)
   LTHOMAS =     F    Thomas Fermi screening in HF
   LMODELHF=     F    short range full HF, long range fraction AEXX
   ENCUT4O =  -1.0   cutoff for four orbital integrals eV
   LMAXFOCK=     4    L truncation for augmentation on plane wave grid
   LMAXFOCKAE=  -1    L truncation for all-electron charge restoration on plane wave grid
   NMAXFOCKAE=   1    number of basis functions for all-electron charge restoration
   LFOCKAEDFT=     F  apply the AE augmentation even for DFT
   NKREDX  =     1    reduce k-point grid by
   NKREDY  =     1    reduce k-point grid by
   NKREDZ  =     1    reduce k-point grid by
   SHIFTRED=     F    shift reduced grid of Gamma
   HFKIDENT=     F    idential grid for each k-point
   ODDONLY =     F    use only odd q-grid points
   EVENONLY=     F    use only even q-grid points
   HFALPHA =   -1.0000 decay constant for conv. correction
   MCALPHA =    0.0000 extent of test-charge in conv. correction in multipole expansion
   AEXX    =    0.2500 exact exchange contribution
   HFSCREEN=    0.2000 screening length (either q_TF or 0.3 A-1)
   HFSCREENC=   0.2000 screening length for correlation (either q_TF or 0.3 A-1)
   HFRCUT  =    0.0000 spherical cutoff for potential kernel
   ALDAX   =    0.7500 LDA exchange part
   AGGAX   =    0.7500 GGA exchange part
   ALDAC   =    1.0000 LDA correlation
   AGGAC   =    1.0000 GGA correlation
   NBANDSGWLOW=     1    first orbital included in HF term
   ENCUTFOCK=  -1.0 apply spherical cutoff to Coloumb kernel
 Linear response parameters
   LEPSILON=     F    determine dielectric tensor
   LRPA    =     F    only Hartree local field effects (RPA)
   LNABLA  =     F    use nabla operator in PAW spheres
   LVEL    =     F    velocity operator in full k-point grid
   LINTERFAST=   F  fast interpolation
   KINTER  =     0    interpolate to denser k-point grid
   CSHIFT  =0.1000    complex shift for real part using Kramers Kronig
   OMEGAMAX=  -1.0    maximum frequency
   DEG_THRESHOLD= 0.2000000E-02 threshold for treating states as degnerate
   RTIME   =    0.100 relaxation time in fs

 Orbital magnetization related:
   ORBITALMAG=     F  switch on orbital magnetization
   LCHIMAG   =     F  perturbation theory with respect to B field
   DQ        =  0.001000  dq finite difference perturbation B field



--------------------------------------------------------------------------------------------------------


 Static calculation
 charge density and potential will be updated during run
 non-spin polarized calculation
 Variant of blocked Davidson
 Davidson routine will perform the subspace rotation
 perform sub-space diagonalisation
    after iterative eigenvector-optimisation
 Kerker-like  mixing scheme
 using additional bands           48
 reciprocal scheme for non local part
 use partial core corrections
 calculate Harris-corrections to forces 
   (improved forces if not selfconsistent)
 use gradient corrections 
 use of overlap-Matrix (Vanderbilt PP)
 Gauss-broadening in eV      SIGMA  =   0.01


--------------------------------------------------------------------------------------------------------


  energy-cutoff  :      500.00
  volume of cell :      440.74
      direct lattice vectors                 reciprocal lattice vectors
     7.407691476 -0.000004474  0.047744187     0.134987013  0.000000042  0.001211810
    -0.000002413  7.633621091  0.000002295     0.000000079  0.130999428 -0.000000039
    -0.069965766  0.000002343  7.793689239    -0.000826931 -0.000000039  0.128301516

  length of vectors
     7.407845335  7.633621091  7.794003283     0.134992452  0.130999428  0.128304181


 
 old parameters found on file WAVECAR:
  energy-cutoff  :      500.00
  volume of cell :      440.74
      direct lattice vectors                 reciprocal lattice vectors
     7.407691476 -0.000004474  0.047744187     0.134987013  0.000000042  0.001211810
    -0.000002413  7.633621091  0.000002295     0.000000079  0.130999428 -0.000000039
    -0.069965766  0.000002343  7.793689239    -0.000826931 -0.000000039  0.128301516

  length of vectors

 
 k-points in units of 2pi/SCALE and weight: KPOINTS BSC FILE                        
   0.01677002  0.01637493  0.01618916       0.031
   0.05051677  0.01637494  0.01649211       0.031
  -0.05072349  0.01637491  0.01558326       0.031
  -0.01697673  0.01637492  0.01588621       0.031
   0.01677004  0.04912479  0.01618915       0.031
   0.05051679  0.04912480  0.01649210       0.031
  -0.05072347  0.04912476  0.01558325       0.031
  -0.01697671  0.04912478  0.01588620       0.031
   0.01676998 -0.04912479  0.01618918       0.031
   0.05051673 -0.04912477  0.01649213       0.031
  -0.05072353 -0.04912481  0.01558328       0.031
  -0.01697677 -0.04912480  0.01588623       0.031
   0.01677000 -0.01637493  0.01618917       0.031
   0.05051675 -0.01637492  0.01649212       0.031
  -0.05072351 -0.01637495  0.01558327       0.031
  -0.01697675 -0.01637494  0.01588622       0.031
   0.01656329  0.01637492  0.04826454       0.031
   0.05031004  0.01637493  0.04856749       0.031
  -0.05093022  0.01637490  0.04765863       0.031
  -0.01718347  0.01637491  0.04796159       0.031
   0.01656331  0.04912478  0.04826453       0.031
   0.05031006  0.04912479  0.04856748       0.031
  -0.05093020  0.04912476  0.04765863       0.031
  -0.01718345  0.04912477  0.04796158       0.031
   0.01656325 -0.04912479  0.04826456       0.031
   0.05031000 -0.04912478  0.04856751       0.031
  -0.05093026 -0.04912482  0.04765865       0.031
  -0.01718351 -0.04912481  0.04796161       0.031
   0.01656327 -0.01637494  0.04826455       0.031
   0.05031002 -0.01637493  0.04856750       0.031
  -0.05093024 -0.01637496  0.04765864       0.031
  -0.01718349 -0.01637495  0.04796160       0.031
   0.00000000  0.00000000  0.00000000       0.000
  -0.00003446 -0.00000000  0.00534590       0.000
  -0.00006891 -0.00000000  0.01069179       0.000
  -0.00010337 -0.00000000  0.01603769       0.000
  -0.00013782 -0.00000001  0.02138359       0.000
  -0.00017228 -0.00000001  0.02672948       0.000
  -0.00020673 -0.00000001  0.03207538       0.000
  -0.00024119 -0.00000001  0.03742128       0.000
  -0.00027564 -0.00000001  0.04276717       0.000
  -0.00031010 -0.00000001  0.04811307       0.000
  -0.00034455 -0.00000002  0.05345896       0.000
  -0.00037901 -0.00000002  0.05880486       0.000
  -0.00041347 -0.00000002  0.06415076       0.000
  -0.00041355  0.00502633  0.06416387       0.000
  -0.00041363  0.01005268  0.06417699       0.000
  -0.00041371  0.01507902  0.06419010       0.000
  -0.00041379  0.02010537  0.06420322       0.000
  -0.00041387  0.02513172  0.06421633       0.000
  -0.00041395  0.03015806  0.06422945       0.000
  -0.00041404  0.03518441  0.06424256       0.000
  -0.00041412  0.04021076  0.06425568       0.000
  -0.00041420  0.04523711  0.06426879       0.000
  -0.00041428  0.05026345  0.06428191       0.000
  -0.00041436  0.05528980  0.06429502       0.000
  -0.00041444  0.06031615  0.06430814       0.000
  -0.00041453  0.06534250  0.06432125       0.000
  -0.00041343  0.06549969  0.06415074       0.000
   0.00477838  0.06549970  0.06419735       0.000
   0.00997019  0.06549970  0.06424395       0.000
   0.01516200  0.06549970  0.06429056       0.000
   0.02035381  0.06549970  0.06433717       0.000
   0.02554561  0.06549970  0.06438378       0.000
   0.03073742  0.06549970  0.06443039       0.000
   0.03592923  0.06549971  0.06447700       0.000
   0.04112104  0.06549971  0.06452360       0.000
   0.04631285  0.06549971  0.06457021       0.000
   0.05150466  0.06549971  0.06461682       0.000
   0.05669646  0.06549971  0.06466343       0.000
   0.06188827  0.06549971  0.06471004       0.000
   0.06708008  0.06549972  0.06475664       0.000
   0.06708118  0.06565692  0.06458613       0.000
   0.06711554  0.06564382  0.05925444       0.000
   0.06714991  0.06563072  0.05392276       0.000
   0.06718427  0.06561762  0.04859107       0.000
   0.06721863  0.06560452  0.04325938       0.000
   0.06725300  0.06559142  0.03792770       0.000
   0.06728736  0.06557833  0.03259601       0.000
   0.06732173  0.06556523  0.02726432       0.000
   0.06735609  0.06555213  0.02193263       0.000
   0.06739045  0.06553903  0.01660095       0.000
   0.06742482  0.06552593  0.01126926       0.000
   0.06745918  0.06551283  0.00593757       0.000
   0.06749355  0.06549974  0.00060589       0.000
   0.06230174  0.06549973  0.00055928       0.000
   0.05710993  0.06549973  0.00051267       0.000
   0.05191812  0.06549973  0.00046606       0.000
   0.04672631  0.06549973  0.00041945       0.000
   0.04153451  0.06549973  0.00037285       0.000
   0.03634270  0.06549973  0.00032624       0.000
   0.03115089  0.06549972  0.00027963       0.000
   0.02595908  0.06549972  0.00023302       0.000
   0.02076727  0.06549972  0.00018641       0.000
   0.01557546  0.06549972  0.00013980       0.000
   0.01038366  0.06549972  0.00009320       0.000
   0.00519185  0.06549972  0.00004659       0.000
   0.00000004  0.06549971 -0.00000002       0.000
   0.00000004  0.06046127 -0.00000002       0.000
   0.00000003  0.05542284 -0.00000002       0.000
   0.00000003  0.05038440 -0.00000001       0.000
   0.00000003  0.04534596 -0.00000001       0.000
   0.00000002  0.04030752 -0.00000001       0.000
   0.00000002  0.03526908 -0.00000001       0.000
   0.00000002  0.03023064 -0.00000001       0.000
   0.00000002  0.02519220 -0.00000001       0.000
   0.00000001  0.02015376 -0.00000001       0.000
   0.00000001  0.01511532 -0.00000000       0.000
   0.00000001  0.01007688 -0.00000000       0.000
   0.00000000  0.00503844 -0.00000000       0.000
   0.00000000  0.00000000  0.00000000       0.000
   0.00519181  0.00000000  0.00004661       0.000
   0.01038362  0.00000000  0.00009322       0.000
   0.01557542  0.00000000  0.00013982       0.000
   0.02076723  0.00000001  0.00018643       0.000
   0.02595904  0.00000001  0.00023304       0.000
   0.03115085  0.00000001  0.00027965       0.000
   0.03634266  0.00000001  0.00032626       0.000
   0.04153447  0.00000001  0.00037286       0.000
   0.04672627  0.00000001  0.00041947       0.000
   0.05191808  0.00000002  0.00046608       0.000
   0.05710989  0.00000002  0.00051269       0.000
   0.06230170  0.00000002  0.00055930       0.000
   0.06749351  0.00000002  0.00060590       0.000
   0.06745905  0.00000002  0.00595180       0.000
   0.06742460  0.00000002  0.01129770       0.000
   0.06739014  0.00000002  0.01664359       0.000
   0.06735568  0.00000001  0.02198949       0.000
   0.06732123  0.00000001  0.02733539       0.000
   0.06728677  0.00000001  0.03268128       0.000
   0.06725232  0.00000001  0.03802718       0.000
   0.06721786  0.00000001  0.04337308       0.000
   0.06718341  0.00000001  0.04871897       0.000
   0.06714895  0.00000000  0.05406487       0.000
   0.06711450  0.00000000  0.05941077       0.000
   0.06708004  0.00000000  0.06475666       0.000
   0.06707996  0.00502635  0.06476978       0.000
   0.06707988  0.01005270  0.06478289       0.000
   0.06707980  0.01507904  0.06479601       0.000
   0.06707971  0.02010539  0.06480912       0.000
   0.06707963  0.02513174  0.06482224       0.000
   0.06707955  0.03015809  0.06483535       0.000
   0.06707947  0.03518443  0.06484847       0.000
   0.06707939  0.04021078  0.06486158       0.000
   0.06707931  0.04523713  0.06487470       0.000
   0.06707923  0.05026347  0.06488781       0.000
   0.06707914  0.05528982  0.06490093       0.000
   0.06707906  0.06031617  0.06491404       0.000
   0.06707898  0.06534252  0.06492716       0.000
 
 k-points in reciprocal lattice and weights: KPOINTS BSC FILE                        
   0.12500000  0.12500000  0.12500000       0.031
   0.37500000  0.12500000  0.12500000       0.031
  -0.37500000  0.12500000  0.12500000       0.031
  -0.12500000  0.12500000  0.12500000       0.031
   0.12500000  0.37500000  0.12500000       0.031
   0.37500000  0.37500000  0.12500000       0.031
  -0.37500000  0.37500000  0.12500000       0.031
  -0.12500000  0.37500000  0.12500000       0.031
   0.12500000 -0.37500000  0.12500000       0.031
   0.37500000 -0.37500000  0.12500000       0.031
  -0.37500000 -0.37500000  0.12500000       0.031
  -0.12500000 -0.37500000  0.12500000       0.031
   0.12500000 -0.12500000  0.12500000       0.031
   0.37500000 -0.12500000  0.12500000       0.031
  -0.37500000 -0.12500000  0.12500000       0.031
  -0.12500000 -0.12500000  0.12500000       0.031
   0.12500000  0.12500000  0.37500000       0.031
   0.37500000  0.12500000  0.37500000       0.031
  -0.37500000  0.12500000  0.37500000       0.031
  -0.12500000  0.12500000  0.37500000       0.031
   0.12500000  0.37500000  0.37500000       0.031
   0.37500000  0.37500000  0.37500000       0.031
  -0.37500000  0.37500000  0.37500000       0.031
  -0.12500000  0.37500000  0.37500000       0.031
   0.12500000 -0.37500000  0.37500000       0.031
   0.37500000 -0.37500000  0.37500000       0.031
  -0.37500000 -0.37500000  0.37500000       0.031
  -0.12500000 -0.37500000  0.37500000       0.031
   0.12500000 -0.12500000  0.37500000       0.031
   0.37500000 -0.12500000  0.37500000       0.031
  -0.37500000 -0.12500000  0.37500000       0.031
  -0.12500000 -0.12500000  0.37500000       0.031
   0.00000000  0.00000000  0.00000000       0.000
   0.00000000  0.00000000  0.04166667       0.000
   0.00000000  0.00000000  0.08333333       0.000
   0.00000000  0.00000000  0.12500000       0.000
   0.00000000  0.00000000  0.16666667       0.000
   0.00000000  0.00000000  0.20833333       0.000
   0.00000000  0.00000000  0.25000000       0.000
   0.00000000  0.00000000  0.29166667       0.000
   0.00000000  0.00000000  0.33333333       0.000
   0.00000000  0.00000000  0.37500000       0.000
   0.00000000  0.00000000  0.41666667       0.000
   0.00000000  0.00000000  0.45833333       0.000
   0.00000000  0.00000000  0.50000000       0.000
   0.00000000  0.03836923  0.50010223       0.000
   0.00000000  0.07673846  0.50020446       0.000
   0.00000000  0.11510769  0.50030669       0.000
   0.00000000  0.15347692  0.50040892       0.000
   0.00000000  0.19184615  0.50051115       0.000
   0.00000000  0.23021538  0.50061338       0.000
   0.00000000  0.26858462  0.50071562       0.000
   0.00000000  0.30695385  0.50081785       0.000
   0.00000000  0.34532308  0.50092008       0.000
   0.00000000  0.38369231  0.50102231       0.000
   0.00000000  0.42206154  0.50112454       0.000
   0.00000000  0.46043077  0.50122677       0.000
   0.00000000  0.49880000  0.50132900       0.000
   0.00000000  0.50000000  0.50000000       0.000
   0.03846154  0.50000000  0.50000000       0.000
   0.07692308  0.50000000  0.50000000       0.000
   0.11538462  0.50000000  0.50000000       0.000
   0.15384615  0.50000000  0.50000000       0.000
   0.19230769  0.50000000  0.50000000       0.000
   0.23076923  0.50000000  0.50000000       0.000
   0.26923077  0.50000000  0.50000000       0.000
   0.30769231  0.50000000  0.50000000       0.000
   0.34615385  0.50000000  0.50000000       0.000
   0.38461538  0.50000000  0.50000000       0.000
   0.42307692  0.50000000  0.50000000       0.000
   0.46153846  0.50000000  0.50000000       0.000
   0.50000000  0.50000000  0.50000000       0.000
   0.50000000  0.50120000  0.49867100       0.000
   0.50000000  0.50110000  0.45711508       0.000
   0.50000000  0.50100000  0.41555917       0.000
   0.50000000  0.50090000  0.37400325       0.000
   0.50000000  0.50080000  0.33244733       0.000
   0.50000000  0.50070000  0.29089142       0.000
   0.50000000  0.50060000  0.24933550       0.000
   0.50000000  0.50050000  0.20777958       0.000
   0.50000000  0.50040000  0.16622367       0.000
   0.50000000  0.50030000  0.12466775       0.000
   0.50000000  0.50020000  0.08311183       0.000
   0.50000000  0.50010000  0.04155592       0.000
   0.50000000  0.50000000  0.00000000       0.000
   0.46153846  0.50000000  0.00000000       0.000
   0.42307692  0.50000000  0.00000000       0.000
   0.38461538  0.50000000  0.00000000       0.000
   0.34615385  0.50000000  0.00000000       0.000
   0.30769231  0.50000000  0.00000000       0.000
   0.26923077  0.50000000  0.00000000       0.000
   0.23076923  0.50000000  0.00000000       0.000
   0.19230769  0.50000000  0.00000000       0.000
   0.15384615  0.50000000  0.00000000       0.000
   0.11538462  0.50000000  0.00000000       0.000
   0.07692308  0.50000000  0.00000000       0.000
   0.03846154  0.50000000  0.00000000       0.000
   0.00000000  0.50000000  0.00000000       0.000
   0.00000000  0.46153846  0.00000000       0.000
   0.00000000  0.42307692  0.00000000       0.000
   0.00000000  0.38461538  0.00000000       0.000
   0.00000000  0.34615385  0.00000000       0.000
   0.00000000  0.30769231  0.00000000       0.000
   0.00000000  0.26923077  0.00000000       0.000
   0.00000000  0.23076923  0.00000000       0.000
   0.00000000  0.19230769  0.00000000       0.000
   0.00000000  0.15384615  0.00000000       0.000
   0.00000000  0.11538462  0.00000000       0.000
   0.00000000  0.07692308  0.00000000       0.000
   0.00000000  0.03846154  0.00000000       0.000
   0.00000000  0.00000000  0.00000000       0.000
   0.03846154  0.00000000  0.00000000       0.000
   0.07692308  0.00000000  0.00000000       0.000
   0.11538462  0.00000000  0.00000000       0.000
   0.15384615  0.00000000  0.00000000       0.000
   0.19230769  0.00000000  0.00000000       0.000
   0.23076923  0.00000000  0.00000000       0.000
   0.26923077  0.00000000  0.00000000       0.000
   0.30769231  0.00000000  0.00000000       0.000
   0.34615385  0.00000000  0.00000000       0.000
   0.38461538  0.00000000  0.00000000       0.000
   0.42307692  0.00000000  0.00000000       0.000
   0.46153846  0.00000000  0.00000000       0.000
   0.50000000  0.00000000  0.00000000       0.000
   0.50000000  0.00000000  0.04166667       0.000
   0.50000000  0.00000000  0.08333333       0.000
   0.50000000  0.00000000  0.12500000       0.000
   0.50000000  0.00000000  0.16666667       0.000
   0.50000000  0.00000000  0.20833333       0.000
   0.50000000  0.00000000  0.25000000       0.000
   0.50000000  0.00000000  0.29166667       0.000
   0.50000000  0.00000000  0.33333333       0.000
   0.50000000  0.00000000  0.37500000       0.000
   0.50000000  0.00000000  0.41666667       0.000
   0.50000000  0.00000000  0.45833333       0.000
   0.50000000  0.00000000  0.50000000       0.000
   0.50000000  0.03836923  0.50010223       0.000
   0.50000000  0.07673846  0.50020446       0.000
   0.50000000  0.11510769  0.50030669       0.000
   0.50000000  0.15347692  0.50040892       0.000
   0.50000000  0.19184615  0.50051115       0.000
   0.50000000  0.23021538  0.50061338       0.000
   0.50000000  0.26858462  0.50071562       0.000
   0.50000000  0.30695385  0.50081785       0.000
   0.50000000  0.34532308  0.50092008       0.000
   0.50000000  0.38369231  0.50102231       0.000
   0.50000000  0.42206154  0.50112454       0.000
   0.50000000  0.46043077  0.50122677       0.000
   0.50000000  0.49880000  0.50132900       0.000
 
 position of ions in fractional coordinates (direct lattice) 
   0.24871895  0.52919760  0.21843662
   0.25128043  0.02919740  0.28156330
   0.74871958  0.97080260  0.71843670
   0.75128105  0.47080240  0.78156338
   0.25135350  0.53115305  0.71951782
   0.24864429  0.03115295  0.78048239
   0.75135570  0.96884705  0.21951761
   0.74864651  0.46884695  0.28048219
   0.50027487  0.51805216  0.26406055
   0.99972547  0.01805187  0.23593613
   0.00027453  0.98194810  0.76406387
   0.49972513  0.48194781  0.73593945
   0.49966006  0.98155846  0.26327994
   0.00033999  0.48155832  0.23672376
   0.99966001  0.51844171  0.76327624
   0.50033993  0.01844157  0.73672006
   0.23169293  0.76001049  0.23643129
   0.26830763  0.26001028  0.26356826
   0.73169233  0.73998972  0.73643175
   0.76830709  0.23998951  0.76356870
   0.26931988  0.76019055  0.75355265
   0.23068075  0.26019057  0.74644692
   0.76931922  0.73980942  0.25355307
   0.73068014  0.23980945  0.24644736
   0.23564171  0.52291051  0.49543574
   0.26436217  0.02291065  0.00456394
   0.73563783  0.97708936  0.99543605
   0.76435829  0.47708950  0.50456426
   0.23561295  0.00513995  0.50460565
   0.26438404  0.50513992  0.99539412
   0.73561596  0.49486007  0.00460588
   0.76438705  0.99486004  0.49539435
 
 position of ions in cartesian coordinates  (Angst):
   1.82714885  4.03969334  1.71430321
   1.84170807  0.22288139  2.20641413
   5.49601531  7.41073752  5.63502164
   5.51057445  3.59392561  6.12713252
   1.81160625  4.05462169  5.61970016
   1.78727307  0.23781050  6.09470860
   5.55045015  7.39580845  1.74672713
   5.52611706  3.57899730  2.22173561
   3.68740541  3.95461227  2.08189228
   7.38915038  0.13779723  1.88654402
  -0.05142705  7.49582151  5.95489171
   3.65031788  3.67900647  5.75954346
   3.68290465  7.49284372  2.07578014
  -0.01404521  3.67603427  1.84496875
   7.35176848  3.95758489  5.99646699
   3.65481863  0.14077545  5.76565561
   1.69976583  5.80163162  1.85373576
   1.96909880  1.98481939  2.06697984
   5.36862427  5.64879957  5.77445597
   5.63795767  1.83198735  5.98769989
   1.94231389  5.80300715  5.88581538
   1.65658547  1.98619697  5.82858959
   5.68113762  5.64742196  2.01284606
   5.39540962  1.83061179  1.95562045
   1.71089630  3.99170081  3.87252392
   1.95799399  0.17489008  0.04819177
   5.37972928  7.45872897  7.79324394
   5.62682699  3.64191825  3.96891181
   1.71004293  0.03923658  3.94398877
   1.88883068  3.85604790  7.77041643
   5.44889260  3.77757096  0.07101929
   5.62768036  7.59438229  3.89744695
 


--------------------------------------------------------------------------------------------------------


 k-point  1 :   0.1250 0.1250 0.1250  plane waves:   11191
 k-point  2 :   0.3750 0.1250 0.1250  plane waves:   11160
 k-point  3 :  -0.3750 0.1250 0.1250  plane waves:   11166
 k-point  4 :  -0.1250 0.1250 0.1250  plane waves:   11194
 k-point  5 :   0.1250 0.3750 0.1250  plane waves:   11205
 k-point  6 :   0.3750 0.3750 0.1250  plane waves:   11190
 k-point  7 :  -0.3750 0.3750 0.1250  plane waves:   11189
 k-point  8 :  -0.1250 0.3750 0.1250  plane waves:   11203
 k-point  9 :   0.1250-0.3750 0.1250  plane waves:   11205
 k-point 10 :   0.3750-0.3750 0.1250  plane waves:   11190
 k-point 11 :  -0.3750-0.3750 0.1250  plane waves:   11189
 k-point 12 :  -0.1250-0.3750 0.1250  plane waves:   11203
 k-point 13 :   0.1250-0.1250 0.1250  plane waves:   11191
 k-point 14 :   0.3750-0.1250 0.1250  plane waves:   11160
 k-point 15 :  -0.3750-0.1250 0.1250  plane waves:   11166
 k-point 16 :  -0.1250-0.1250 0.1250  plane waves:   11194
 k-point 17 :   0.1250 0.1250 0.3750  plane waves:   11201
 k-point 18 :   0.3750 0.1250 0.3750  plane waves:   11190
 k-point 19 :  -0.3750 0.1250 0.3750  plane waves:   11193
 k-point 20 :  -0.1250 0.1250 0.3750  plane waves:   11204
 k-point 21 :   0.1250 0.3750 0.3750  plane waves:   11187
 k-point 22 :   0.3750 0.3750 0.3750  plane waves:   11217
 k-point 23 :  -0.3750 0.3750 0.3750  plane waves:   11203
 k-point 24 :  -0.1250 0.3750 0.3750  plane waves:   11182
 k-point 25 :   0.1250-0.3750 0.3750  plane waves:   11187
 k-point 26 :   0.3750-0.3750 0.3750  plane waves:   11217
 k-point 27 :  -0.3750-0.3750 0.3750  plane waves:   11203
 k-point 28 :  -0.1250-0.3750 0.3750  plane waves:   11182
 k-point 29 :   0.1250-0.1250 0.3750  plane waves:   11201
 k-point 30 :   0.3750-0.1250 0.3750  plane waves:   11190
 k-point 31 :  -0.3750-0.1250 0.3750  plane waves:   11193
 k-point 32 :  -0.1250-0.1250 0.3750  plane waves:   11204
 k-point 33 :   0.0000 0.0000 0.0000  plane waves:   11201
 k-point 34 :   0.0000 0.0000 0.0417  plane waves:   11203
 k-point 35 :   0.0000 0.0000 0.0833  plane waves:   11197
 k-point 36 :   0.0000 0.0000 0.1250  plane waves:   11180
 k-point 37 :   0.0000 0.0000 0.1667  plane waves:   11183
 k-point 38 :   0.0000 0.0000 0.2083  plane waves:   11188
 k-point 39 :   0.0000 0.0000 0.2500  plane waves:   11177
 k-point 40 :   0.0000 0.0000 0.2917  plane waves:   11180
 k-point 41 :   0.0000 0.0000 0.3333  plane waves:   11190
 k-point 42 :   0.0000 0.0000 0.3750  plane waves:   11198
 k-point 43 :   0.0000 0.0000 0.4167  plane waves:   11210
 k-point 44 :   0.0000 0.0000 0.4583  plane waves:   11215
 k-point 45 :   0.0000 0.0000 0.5000  plane waves:   11214
 k-point 46 :   0.0000 0.0384 0.5001  plane waves:   11216
 k-point 47 :   0.0000 0.0767 0.5002  plane waves:   11202
 k-point 48 :   0.0000 0.1151 0.5003  plane waves:   11206
 k-point 49 :   0.0000 0.1535 0.5004  plane waves:   11212
 k-point 50 :   0.0000 0.1918 0.5005  plane waves:   11230
 k-point 51 :   0.0000 0.2302 0.5006  plane waves:   11209
 k-point 52 :   0.0000 0.2686 0.5007  plane waves:   11204
 k-point 53 :   0.0000 0.3070 0.5008  plane waves:   11189
 k-point 54 :   0.0000 0.3453 0.5009  plane waves:   11191
 k-point 55 :   0.0000 0.3837 0.5010  plane waves:   11177
 k-point 56 :   0.0000 0.4221 0.5011  plane waves:   11159
 k-point 57 :   0.0000 0.4604 0.5012  plane waves:   11155
 k-point 58 :   0.0000 0.4988 0.5013  plane waves:   11144
 k-point 59 :   0.0000 0.5000 0.5000  plane waves:   11144
 k-point 60 :   0.0385 0.5000 0.5000  plane waves:   11148
 k-point 61 :   0.0769 0.5000 0.5000  plane waves:   11164
 k-point 62 :   0.1154 0.5000 0.5000  plane waves:   11180
 k-point 63 :   0.1538 0.5000 0.5000  plane waves:   11192
 k-point 64 :   0.1923 0.5000 0.5000  plane waves:   11196
 k-point 65 :   0.2308 0.5000 0.5000  plane waves:   11196
 k-point 66 :   0.2692 0.5000 0.5000  plane waves:   11206
 k-point 67 :   0.3077 0.5000 0.5000  plane waves:   11200
 k-point 68 :   0.3462 0.5000 0.5000  plane waves:   11202
 k-point 69 :   0.3846 0.5000 0.5000  plane waves:   11196
 k-point 70 :   0.4231 0.5000 0.5000  plane waves:   11194
 k-point 71 :   0.4615 0.5000 0.5000  plane waves:   11190
 k-point 72 :   0.5000 0.5000 0.5000  plane waves:   11184
 k-point 73 :   0.5000 0.5012 0.4987  plane waves:   11184
 k-point 74 :   0.5000 0.5011 0.4571  plane waves:   11195
 k-point 75 :   0.5000 0.5010 0.4156  plane waves:   11188
 k-point 76 :   0.5000 0.5009 0.3740  plane waves:   11192
 k-point 77 :   0.5000 0.5008 0.3324  plane waves:   11184
 k-point 78 :   0.5000 0.5007 0.2909  plane waves:   11188
 k-point 79 :   0.5000 0.5006 0.2493  plane waves:   11179
 k-point 80 :   0.5000 0.5005 0.2078  plane waves:   11185
 k-point 81 :   0.5000 0.5004 0.1662  plane waves:   11192
 k-point 82 :   0.5000 0.5003 0.1247  plane waves:   11188
 k-point 83 :   0.5000 0.5002 0.0831  plane waves:   11190
 k-point 84 :   0.5000 0.5001 0.0416  plane waves:   11183
 k-point 85 :   0.5000 0.5000 0.0000  plane waves:   11176
 k-point 86 :   0.4615 0.5000 0.0000  plane waves:   11180
 k-point 87 :   0.4231 0.5000 0.0000  plane waves:   11178
 k-point 88 :   0.3846 0.5000 0.0000  plane waves:   11186
 k-point 89 :   0.3462 0.5000 0.0000  plane waves:   11184
 k-point 90 :   0.3077 0.5000 0.0000  plane waves:   11184
 k-point 91 :   0.2692 0.5000 0.0000  plane waves:   11202
 k-point 92 :   0.2308 0.5000 0.0000  plane waves:   11210
 k-point 93 :   0.1923 0.5000 0.0000  plane waves:   11222
 k-point 94 :   0.1538 0.5000 0.0000  plane waves:   11222
 k-point 95 :   0.1154 0.5000 0.0000  plane waves:   11208
 k-point 96 :   0.0769 0.5000 0.0000  plane waves:   11200
 k-point 97 :   0.0385 0.5000 0.0000  plane waves:   11192
 k-point 98 :   0.0000 0.5000 0.0000  plane waves:   11196
 k-point 99 :   0.0000 0.4615 0.0000  plane waves:   11178
 k-point ** :   0.0000 0.4231 0.0000  plane waves:   11188
 k-point ** :   0.0000 0.3846 0.0000  plane waves:   11202
 k-point ** :   0.0000 0.3462 0.0000  plane waves:   11210
 k-point ** :   0.0000 0.3077 0.0000  plane waves:   11230
 k-point ** :   0.0000 0.2692 0.0000  plane waves:   11222
 k-point ** :   0.0000 0.2308 0.0000  plane waves:   11226
 k-point ** :   0.0000 0.1923 0.0000  plane waves:   11218
 k-point ** :   0.0000 0.1538 0.0000  plane waves:   11208
 k-point ** :   0.0000 0.1154 0.0000  plane waves:   11212
 k-point ** :   0.0000 0.0769 0.0000  plane waves:   11211
 k-point ** :   0.0000 0.0385 0.0000  plane waves:   11211
 k-point ** :   0.0000 0.0000 0.0000  plane waves:   11201
 k-point ** :   0.0385 0.0000 0.0000  plane waves:   11192
 k-point ** :   0.0769 0.0000 0.0000  plane waves:   11175
 k-point ** :   0.1154 0.0000 0.0000  plane waves:   11187
 k-point ** :   0.1538 0.0000 0.0000  plane waves:   11182
 k-point ** :   0.1923 0.0000 0.0000  plane waves:   11181
 k-point ** :   0.2308 0.0000 0.0000  plane waves:   11172
 k-point ** :   0.2692 0.0000 0.0000  plane waves:   11167
 k-point ** :   0.3077 0.0000 0.0000  plane waves:   11158
 k-point ** :   0.3462 0.0000 0.0000  plane waves:   11157
 k-point ** :   0.3846 0.0000 0.0000  plane waves:   11166
 k-point ** :   0.4231 0.0000 0.0000  plane waves:   11191
 k-point ** :   0.4615 0.0000 0.0000  plane waves:   11192
 k-point ** :   0.5000 0.0000 0.0000  plane waves:   11192
 k-point ** :   0.5000 0.0000 0.0417  plane waves:   11189
 k-point ** :   0.5000 0.0000 0.0833  plane waves:   11188
 k-point ** :   0.5000 0.0000 0.1250  plane waves:   11178
 k-point ** :   0.5000 0.0000 0.1667  plane waves:   11171
 k-point ** :   0.5000 0.0000 0.2083  plane waves:   11172
 k-point ** :   0.5000 0.0000 0.2500  plane waves:   11174
 k-point ** :   0.5000 0.0000 0.2917  plane waves:   11172
 k-point ** :   0.5000 0.0000 0.3333  plane waves:   11176
 k-point ** :   0.5000 0.0000 0.3750  plane waves:   11163
 k-point ** :   0.5000 0.0000 0.4167  plane waves:   11145
 k-point ** :   0.5000 0.0000 0.4583  plane waves:   11133
 k-point ** :   0.5000 0.0000 0.5000  plane waves:   11144
 k-point ** :   0.5000 0.0384 0.5001  plane waves:   11132
 k-point ** :   0.5000 0.0767 0.5002  plane waves:   11136
 k-point ** :   0.5000 0.1151 0.5003  plane waves:   11144
 k-point ** :   0.5000 0.1535 0.5004  plane waves:   11160
 k-point ** :   0.5000 0.1918 0.5005  plane waves:   11171
 k-point ** :   0.5000 0.2302 0.5006  plane waves:   11180
 k-point ** :   0.5000 0.2686 0.5007  plane waves:   11170
 k-point ** :   0.5000 0.3070 0.5008  plane waves:   11187
 k-point ** :   0.5000 0.3453 0.5009  plane waves:   11189
 k-point ** :   0.5000 0.3837 0.5010  plane waves:   11181
 k-point ** :   0.5000 0.4221 0.5011  plane waves:   11189
 k-point ** :   0.5000 0.4604 0.5012  plane waves:   11194
 k-point ** :   0.5000 0.4988 0.5013  plane waves:   11184

 maximum and minimum number of plane-waves per node :     11230    11132

 maximum number of plane-waves:     11230
 maximum index in each direction: 
   IXMAX=   13   IYMAX=   14   IZMAX=   14
   IXMIN=  -14   IYMIN=  -14   IZMIN=  -14

 WARNING: aliasing errors must be expected set NGX to  56 to avoid them
 WARNING: aliasing errors must be expected set NGY to  58 to avoid them
 WARNING: aliasing errors must be expected set NGZ to  58 to avoid them
 aliasing errors are usually negligible using standard VASP settings
 and one can safely disregard these warnings

 serial   3D FFT for wavefunctions
 parallel 3D FFT for charge:
    minimum data exchange during FFTs selected (reduces bandwidth)


 FFT grid for exact exchange (Hartree Fock) 
  NGX = 30; NGY = 30; NGZ = 32

 
 Radii for the augmentation spheres in the non-local exchange
 for species   1 augmentation radius   1.596 (default was   1.182)
       energy cutoff for augmentation   2000.0
 for species   2 augmentation radius   0.974 (default was   0.722)
       energy cutoff for augmentation   2000.0
 Maximum index for augmentation-charges in exchange         1121
  SETUP_FOCK is finished

 total amount of memory used by VASP on root node   693578. kBytes
========================================================================

   base      :      30000. kBytes
   nonl-proj :     487738. kBytes
   fftplans  :       1424. kBytes
   grid      :       5248. kBytes
   one-center:        497. kBytes
   HF        :        129. kBytes
   nonlr-proj:       3074. kBytes
   wavefun   :     165468. kBytes
 
     INWAV:  cpu time   39.5225: real time   39.6625
 charge density for first step will be calculated from the start-wavefunctions


--------------------------------------------------------------------------------------------------------


 Maximum index for augmentation-charges          571 (set IRDMAX)


--------------------------------------------------------------------------------------------------------


 initial charge from wavefunction
 First call to EWALD:  gamma=   0.233
 Maximum number of real-space cells 3x 3x 3
 Maximum number of reciprocal cells 3x 3x 3

 FEWALD executed in parallel
    FEWALD:  cpu time    0.0040: real time    0.0021


----------------------------------------- Iteration    1(   1)  ---------------------------------------


    POTLOK:  cpu time    0.1120: real time    0.1095
    SETDIJ:  cpu time    0.1400: real time    0.1404
     EDDAV:  cpu time 5553.4031: real time 5561.8632
       DOS:  cpu time    0.0040: real time    0.0069
    CHARGE:  cpu time    0.0880: real time    0.0852
    MIXING:  cpu time    0.0000: real time    0.0003
    --------------------------------------------
      LOOP:  cpu time 5553.7511: real time 5562.2825

 eigenvalue-minimisations  : 45408
 total energy-change (2. order) :-0.3554274E+03  (-0.3778504E-03)
 number of electron     192.0000103 magnetization 
 augmentation part       19.6433162 magnetization 

 Free energy of the ion-electron system (eV)
  ---------------------------------------------------
  alpha Z        PSCENC =       665.46879839
  Ewald energy   TEWEN  =     -8439.41057219
  -Hartree energ DENC   =     -4063.88323824
  -exchange      EXHF   =       514.42302075
  -V(xc)+E(xc)   XCENC  =       221.62507362
  PAW double counting   =     32977.26034042   -32638.41479407
  entropy T*S    EENTRO =        -0.00000000
  eigenvalues    EBANDS =     -1512.44587043
  atomic energy  EATOM  =     11919.94983009
  Solvation  Ediel_sol  =         0.00000000
  ---------------------------------------------------
  free energy    TOTEN  =      -355.42741166 eV

  energy without entropy =     -355.42741166  energy(sigma->0) =     -355.42741166
  exchange ACFDT corr.  =        -0.00000000  see jH, gK, PRB 81, 115126


--------------------------------------------------------------------------------------------------------




----------------------------------------- Iteration    1(   2)  ---------------------------------------


    POTLOK:  cpu time    0.1080: real time    0.1056
    SETDIJ:  cpu time    0.1560: real time    0.1590
     EDDAV:  cpu time 4657.9631: real time 4665.0428
       DOS:  cpu time    0.0080: real time    0.0068
    CHARGE:  cpu time    0.0840: real time    0.0853
    MIXING:  cpu time    0.0000: real time    0.0003
    --------------------------------------------
      LOOP:  cpu time 4658.3191: real time 4665.4422

 eigenvalue-minimisations  : 34896
 total energy-change (2. order) : 0.1029728E-02  (-0.1477142E-03)
 number of electron     192.0000103 magnetization 
 augmentation part       19.6452793 magnetization 

 Free energy of the ion-electron system (eV)
  ---------------------------------------------------
  alpha Z        PSCENC =       665.46879839
  Ewald energy   TEWEN  =     -8439.41057219
  -Hartree energ DENC   =     -4062.52491726
  -exchange      EXHF   =       514.11619352
  -V(xc)+E(xc)   XCENC  =       221.52649004
  PAW double counting   =     32959.75831728   -32620.89753717
  entropy T*S    EENTRO =        -0.00000000
  eigenvalues    EBANDS =     -1513.41298465
  atomic energy  EATOM  =     11919.94983009
  Solvation  Ediel_sol  =         0.00000000
  ---------------------------------------------------
  free energy    TOTEN  =      -355.42638193 eV

  energy without entropy =     -355.42638193  energy(sigma->0) =     -355.42638193
  exchange ACFDT corr.  =        -0.00000000  see jH, gK, PRB 81, 115126


--------------------------------------------------------------------------------------------------------




----------------------------------------- Iteration    1(   3)  ---------------------------------------


    POTLOK:  cpu time    0.1040: real time    0.1054
    SETDIJ:  cpu time    0.1440: real time    0.1433
     EDDAV:  cpu time 3922.9372: real time 3928.9681
       DOS:  cpu time    0.0120: real time    0.0103
    CHARGE:  cpu time    0.0840: real time    0.0854
    MIXING:  cpu time    0.0000: real time    0.0003
    --------------------------------------------
      LOOP:  cpu time 3923.2852: real time 3929.3412

 eigenvalue-minimisations  : 25416
 total energy-change (2. order) :-0.2312333E-03  (-0.6419892E-04)
 number of electron     192.0000103 magnetization 
 augmentation part       19.6472282 magnetization 

 Free energy of the ion-electron system (eV)
  ---------------------------------------------------
  alpha Z        PSCENC =       665.46879839
  Ewald energy   TEWEN  =     -8439.41057219
  -Hartree energ DENC   =     -4062.45892486
  -exchange      EXHF   =       514.29114557
  -V(xc)+E(xc)   XCENC  =       221.52086473
  PAW double counting   =     32966.65592071   -32627.79349922
  entropy T*S    EENTRO =        -0.00000000
  eigenvalues    EBANDS =     -1513.65017640
  atomic energy  EATOM  =     11919.94983009
  Solvation  Ediel_sol  =         0.00000000
  ---------------------------------------------------
  free energy    TOTEN  =      -355.42661317 eV

  energy without entropy =     -355.42661317  energy(sigma->0) =     -355.42661317
  exchange ACFDT corr.  =        -0.00000000  see jH, gK, PRB 81, 115126


--------------------------------------------------------------------------------------------------------




----------------------------------------- Iteration    1(   4)  ---------------------------------------


    POTLOK:  cpu time    0.1040: real time    0.1054
    SETDIJ:  cpu time    0.1400: real time    0.1409
     EDDAV:  cpu time 3829.6833: real time 3835.5755
       DOS:  cpu time    0.0120: real time    0.0100
    CHARGE:  cpu time    0.0840: real time    0.0854
    MIXING:  cpu time    0.0000: real time    0.0003
    --------------------------------------------
      LOOP:  cpu time 3830.0274: real time 3835.9514

 eigenvalue-minimisations  : 24960
 total energy-change (2. order) : 0.5638177E-04  (-0.9497667E-05)
 number of electron     192.0000103 magnetization 
 augmentation part       19.6471521 magnetization 

 Free energy of the ion-electron system (eV)
  ---------------------------------------------------
  alpha Z        PSCENC =       665.46879839
  Ewald energy   TEWEN  =     -8439.41057219
  -Hartree energ DENC   =     -4062.78895004
  -exchange      EXHF   =       514.36770268
  -V(xc)+E(xc)   XCENC  =       221.54279528
  PAW double counting   =     32970.06179182   -32631.20150987
  entropy T*S    EENTRO =        -0.00000000
  eigenvalues    EBANDS =     -1513.41644295
  atomic energy  EATOM  =     11919.94983009
  Solvation  Ediel_sol  =         0.00000000
  ---------------------------------------------------
  free energy    TOTEN  =      -355.42655678 eV

  energy without entropy =     -355.42655678  energy(sigma->0) =     -355.42655678
  exchange ACFDT corr.  =        -0.00000000  see jH, gK, PRB 81, 115126


--------------------------------------------------------------------------------------------------------




----------------------------------------- Iteration    1(   5)  ---------------------------------------


    POTLOK:  cpu time    0.1040: real time    0.1054
    SETDIJ:  cpu time    0.1320: real time    0.1318
     EDDAV:  cpu time 3839.3559: real time 3845.2608
       DOS:  cpu time    0.0120: real time    0.0100
    CHARGE:  cpu time    0.0840: real time    0.0855
    MIXING:  cpu time    0.0000: real time    0.0003
    --------------------------------------------
      LOOP:  cpu time 3839.6920: real time 3845.6343

 eigenvalue-minimisations  : 24576
 total energy-change (2. order) :-0.1051751E-04  (-0.4779142E-05)
 number of electron     192.0000103 magnetization 
 augmentation part       19.6464777 magnetization 

 Free energy of the ion-electron system (eV)
  ---------------------------------------------------
  alpha Z        PSCENC =       665.46879839
  Ewald energy   TEWEN  =     -8439.41057219
  -Hartree energ DENC   =     -4062.84155068
  -exchange      EXHF   =       514.33258284
  -V(xc)+E(xc)   XCENC  =       221.54528540
  PAW double counting   =     32968.22727464   -32629.36684732
  entropy T*S    EENTRO =        -0.00000000
  eigenvalues    EBANDS =     -1513.33136848
  atomic energy  EATOM  =     11919.94983009
  Solvation  Ediel_sol  =         0.00000000
  ---------------------------------------------------
  free energy    TOTEN  =      -355.42656730 eV

  energy without entropy =     -355.42656730  energy(sigma->0) =     -355.42656730
  exchange ACFDT corr.  =        -0.00000000  see jH, gK, PRB 81, 115126


--------------------------------------------------------------------------------------------------------




----------------------------------------- Iteration    1(   6)  ---------------------------------------


    POTLOK:  cpu time    0.1040: real time    0.1053
    SETDIJ:  cpu time    0.0040: real time    0.0033
     EDDAV:  cpu time 3834.8397: real time 3840.7429
       DOS:  cpu time    0.0120: real time    0.0100
    CHARGE:  cpu time    0.0840: real time    0.0852
    MIXING:  cpu time    0.0000: real time    0.0003
    --------------------------------------------
      LOOP:  cpu time 3835.0477: real time 3841.1845

 eigenvalue-minimisations  : 24648
 total energy-change (2. order) : 0.2832281E-05  (-0.5264917E-06)
 number of electron     192.0000103 magnetization 
 augmentation part       19.6464011 magnetization 

 Free energy of the ion-electron system (eV)
  ---------------------------------------------------
  alpha Z        PSCENC =       665.46879839
  Ewald energy   TEWEN  =     -8439.41057219
  -Hartree energ DENC   =     -4062.76921435
  -exchange      EXHF   =       514.31196095
  -V(xc)+E(xc)   XCENC  =       221.53982887
  PAW double counting   =     32967.48304528   -32628.62131064
  entropy T*S    EENTRO =        -0.00000000
  eigenvalues    EBANDS =     -1513.37893087
  atomic energy  EATOM  =     11919.94983009
  Solvation  Ediel_sol  =         0.00000000
  ---------------------------------------------------
  free energy    TOTEN  =      -355.42656447 eV

  energy without entropy =     -355.42656447  energy(sigma->0) =     -355.42656447
  exchange ACFDT corr.  =        -0.00000000  see jH, gK, PRB 81, 115126


--------------------------------------------------------------------------------------------------------




----------------------------------------- Iteration    1(   7)  ---------------------------------------


    POTLOK:  cpu time    0.1040: real time    0.1053
    SETDIJ:  cpu time    0.1200: real time    0.1214
     EDDAV:  cpu time 3846.4964: real time 3852.4103
       DOS:  cpu time    0.0080: real time    0.0104
    CHARGE:  cpu time    0.0880: real time    0.0858
    MIXING:  cpu time    0.0000: real time    0.0003
    --------------------------------------------
      LOOP:  cpu time 3846.8204: real time 3852.7847

 eigenvalue-minimisations  : 24312
 total energy-change (2. order) :-0.4893645E-06  (-0.2667338E-06)
 number of electron     192.0000103 magnetization 
 augmentation part       19.6465348 magnetization 

 Free energy of the ion-electron system (eV)
  ---------------------------------------------------
  alpha Z        PSCENC =       665.46879839
  Ewald energy   TEWEN  =     -8439.41057219
  -Hartree energ DENC   =     -4062.75571591
  -exchange      EXHF   =       514.31979029
  -V(xc)+E(xc)   XCENC  =       221.53886788
  PAW double counting   =     32968.26127812   -32629.39903545
  entropy T*S    EENTRO =        -0.00000000
  eigenvalues    EBANDS =     -1513.39980620
  atomic energy  EATOM  =     11919.94983009
  Solvation  Ediel_sol  =         0.00000000
  ---------------------------------------------------
  free energy    TOTEN  =      -355.42656496 eV

  energy without entropy =     -355.42656496  energy(sigma->0) =     -355.42656496
  exchange ACFDT corr.  =        -0.00000000  see jH, gK, PRB 81, 115126


[...]
   10.869209    0.471960    0.836419    0.643153    0.000001    0.000002    0.019938
   11.003397    1.101077    0.479872    0.351803    0.000002   -0.000015    0.016785
   11.137585    0.140345   -0.665684   -0.653788   -0.000003   -0.000003    0.019659
   11.271773   -1.801004   -2.005446   -1.619254   -0.000002   -0.000003   -0.000902
   11.405960   -2.253265   -2.760692   -2.263454   -0.000002   -0.000002   -0.006688
   11.540148   -2.201059   -2.177389   -1.843399    0.000002   -0.000004    0.005033
   11.674336   -1.564136   -1.608844   -1.798977    0.000012   -0.000011    0.016505
   11.808524   -1.120404   -1.275902   -1.417788    0.000002   -0.000011    0.001979
   11.942712   -0.949875   -0.993912   -0.951024   -0.000016   -0.000009    0.001870
   12.076899   -0.857421   -0.829243   -0.652740   -0.000022   -0.000011    0.003035
   12.211087   -0.694581   -0.811036   -0.585685   -0.000005   -0.000015    0.002469
   12.345275   -0.651599   -0.722276   -0.757222   -0.000001   -0.000009    0.001947
   12.479463   -0.520727   -0.565977   -0.739695   -0.000004   -0.000012   -0.006377
   12.613650   -0.629015   -0.529085   -0.775072   -0.000010   -0.000015    0.013809
   12.747838   -0.560943   -0.411458   -0.949495   -0.000023   -0.000014    0.001185
   12.882026   -0.515010   -0.498533   -0.859790   -0.000008   -0.000016    0.009042
   13.016214   -0.517363   -0.624089   -0.652497    0.000005   -0.000021    0.011501
   13.150401   -0.522131   -0.588963   -0.705433    0.000009   -0.000029    0.010809
   13.284589   -0.428274   -0.453545   -0.846069   -0.000003   -0.000025    0.012544
   13.418777   -0.437009   -0.313816   -0.727906   -0.000015   -0.000030    0.005549
   13.552965   -0.263963   -0.297276   -0.631011   -0.000014   -0.000004    0.009241
   13.687153   -0.032261   -0.343704   -0.512280   -0.000017   -0.000009   -0.002004
   13.821340   -0.094867   -0.326094   -0.693861   -0.000008   -0.000024    0.003209
   13.955528   -0.210095   -0.388827   -0.729905   -0.000007   -0.000006    0.010877
   14.089716   -0.534671   -0.488614   -0.583028   -0.000001    0.000027    0.011289
   14.223904   -0.394205   -0.667752   -0.457781   -0.000008    0.000011    0.009050
   14.358091   -0.545964   -0.773362   -0.706573   -0.000005    0.000002    0.001907
   14.492279   -0.744639   -0.757747   -0.759396   -0.000000    0.000008   -0.004615
   14.626467   -0.755732   -0.711764   -0.700227   -0.000012    0.000012   -0.000323
   14.760655   -0.574135   -0.727030   -0.538899   -0.000020   -0.000011   -0.008424
   14.894843   -0.420921   -0.702052   -0.572925   -0.000016   -0.000033   -0.006160
   15.029030   -0.405877   -0.578650   -0.533811    0.000004   -0.000052   -0.002847
   15.163218   -0.355851   -0.431695   -0.425180   -0.000010    0.000009    0.001271
   15.297406   -0.432149   -0.432954   -0.544588    0.000055    0.000084    0.002706
   15.431594   -0.352167   -0.492281   -0.623246    0.000033    0.000073    0.004177
   15.565781   -0.263243   -0.468120   -0.540532    0.000020    0.000039    0.002683
   15.699969   -0.332521   -0.383765   -0.493177    0.000012    0.000030   -0.000088
   15.834157   -0.328182   -0.383187   -0.479049    0.000010    0.000034    0.002095
   15.968345   -0.442833   -0.386777   -0.476733   -0.000003    0.000039   -0.000145
   16.102532   -0.374157   -0.395625   -0.419343    0.000009    0.000027   -0.002313
   16.236720   -0.309286   -0.324962   -0.340606    0.000038    0.000017    0.002433
   16.370908   -0.330947   -0.266159   -0.352657    0.000029    0.000013   -0.001412
   16.505096   -0.269354   -0.211863   -0.340308    0.000008    0.000043   -0.000312
   16.639284   -0.232423   -0.222907   -0.330561    0.000012    0.000047   -0.002015
   16.773471   -0.299336   -0.278116   -0.251249    0.000019    0.000058   -0.001349
   16.907659   -0.331512   -0.347412   -0.331754    0.000035    0.000053    0.000114
   17.041847   -0.329984   -0.333647   -0.391264    0.000033   -0.000027   -0.001411
   17.176035   -0.301064   -0.301037   -0.294879    0.000014   -0.000029   -0.002516
   17.310222   -0.209313   -0.332449   -0.342822   -0.000013   -0.000037   -0.002109
   17.444410   -0.148874   -0.246519   -0.319543    0.000004   -0.000006   -0.000125
   17.578598   -0.094717   -0.172117   -0.231210    0.000003   -0.000006   -0.000885
   17.712786   -0.053064   -0.131202   -0.228323    0.000003   -0.000004   -0.001513
   17.846973   -0.013157   -0.111206   -0.268363    0.000006    0.000005   -0.000601
   17.981161    0.029937   -0.134995   -0.202668    0.000003    0.000001   -0.001524
   18.115349    0.035380   -0.224739   -0.160694    0.000000   -0.000000   -0.000675
   18.249537    0.020582   -0.162290   -0.177270    0.000003   -0.000002   -0.000313
   18.383725    0.076061   -0.079936   -0.159380    0.000000   -0.000003    0.000610
   18.517912    0.072862   -0.013538   -0.107600   -0.000003   -0.000002    0.000398
   18.652100    0.077256    0.015929   -0.070384   -0.000003   -0.000003   -0.000091
   18.786288    0.107219   -0.022504   -0.023371   -0.000002   -0.000003   -0.000311
   18.920476    0.086934    0.021364    0.005447   -0.000001    0.000007   -0.000360
   19.054663    0.069457    0.068980    0.033300   -0.000004    0.000005   -0.000378
   19.188851    0.110543    0.089185    0.056913   -0.000004    0.000001   -0.000447
   19.323039    0.150769    0.126337    0.094755   -0.000003   -0.000001   -0.000375
   19.457227    0.186604    0.147763    0.127752   -0.000002    0.000005   -0.000276
   19.591414    0.221384    0.183719    0.145287   -0.000001    0.000013   -0.000415
   19.725602    0.251142    0.213789    0.168447   -0.000001    0.000012   -0.000191
   19.859790    0.268564    0.217439    0.190485    0.000002    0.000012   -0.000211
   19.993978    0.290042    0.219998    0.205133    0.000001    0.000006   -0.000202
   20.128166    0.314634    0.236862    0.225570    0.000000   -0.000001   -0.000010
   20.262353    0.333537    0.259994    0.246316   -0.000001    0.000002    0.000112
   20.396541    0.355025    0.284256    0.264611   -0.000001   -0.000004    0.000014
   20.530729    0.374870    0.306624    0.281826    0.000003   -0.000003    0.000115
   20.664917    0.393611    0.328030    0.300520    0.000003   -0.000002    0.000112
   20.799104    0.411193    0.347760    0.321336   -0.000001   -0.000003    0.000167
   20.933292    0.430782    0.367817    0.341327   -0.000001   -0.000002    0.000229
   21.067480    0.449327    0.386748    0.359998   -0.000000   -0.000001    0.000124
   21.201668    0.467970    0.404152    0.377735   -0.000000   -0.000001    0.000144
   21.335855    0.486751    0.421772    0.394880   -0.000000   -0.000001    0.000222
   21.470043    0.506309    0.439330    0.411475    0.000000   -0.000000    0.000282
   21.604231    0.526319    0.457251    0.428061    0.000000   -0.000000    0.000362
   21.738419    0.548279    0.475648    0.444722    0.000000   -0.000000    0.000472
   21.872607    0.569730    0.493180    0.461205    0.000000    0.000000    0.000366
   22.006794    0.591112    0.508624    0.477662   -0.000000    0.000000    0.000360
   22.140982    0.615305    0.523926    0.494182   -0.000000    0.000000    0.000540
   22.275170    0.636143    0.545209    0.510273   -0.000000    0.000000    0.000639
   22.409358    0.641169    0.569658    0.528166   -0.000000    0.000000    0.000471
   22.543545    0.653803    0.592574    0.549397    0.000000    0.000000    0.000350
   22.677733    0.646636    0.620426    0.563759    0.000001    0.000000    0.000136
   22.811921    0.623294    0.645343    0.582659    0.000001    0.000000   -0.000223
   22.946109    0.627660    0.610573    0.596772   -0.000000    0.000000   -0.000155
   23.080297    0.682433    0.605944    0.616255   -0.000000    0.000000    0.000253
   23.214484    0.747055    0.634477    0.621483   -0.000000    0.000000    0.000678
   23.348672    0.727548    0.677806    0.629346    0.000000    0.000000    0.001026
   23.482860    0.629754    0.680826    0.633050   -0.000001    0.000000    0.000662
   23.617048    0.677900    0.673930    0.657807   -0.000001    0.000000    0.001578
   23.751235    0.629664    0.662233    0.663244   -0.000001    0.000000    0.000292
   23.885423    0.507401    0.628709    0.674489    0.000001   -0.000000   -0.002950
   24.019611    0.509159    0.590446    0.675834    0.000003   -0.000000   -0.003437
   24.153799    0.490804    0.612660    0.680683    0.000001   -0.000001   -0.004525
   24.287986    0.483726    0.564569    0.662463   -0.000000    0.000002   -0.006298
   24.422174    0.521188    0.544921    0.607092   -0.000000    0.000004   -0.005694
   24.556362    0.551757    0.540921    0.556571   -0.000000    0.000002   -0.008042
   24.690550    0.564542    0.512870    0.526639   -0.000001    0.000001   -0.001280
   24.824738    0.531540    0.494120    0.516271    0.000003    0.000002    0.000926
   24.958925    0.467297    0.461468    0.464841    0.000002    0.000003    0.002203
   25.093113    0.484383    0.468010    0.435184    0.000001   -0.000000    0.004479
   25.227301    0.497095    0.431616    0.374413    0.000001   -0.000003   -0.000661
   25.361489    0.495582    0.411305    0.396124    0.000003    0.000001    0.000119
   25.495676    0.469799    0.439548    0.439984    0.000003    0.000001    0.001221
   25.629864    0.481133    0.471146    0.453150    0.000001   -0.000001    0.001393
   25.764052    0.475966    0.491383    0.480200    0.000000   -0.000000    0.001114
   25.898240    0.483146    0.504938    0.506963   -0.000001    0.000000    0.000378
   26.032427    0.498692    0.523059    0.523416    0.000000    0.000001    0.000187
   26.166615    0.520233    0.540488    0.539961    0.000000    0.000001    0.000006
   26.300803    0.540522    0.557622    0.558652    0.000000    0.000001   -0.000420
   26.434991    0.558266    0.574026    0.570442    0.000000    0.000001   -0.000640
   26.569179    0.570991    0.581792    0.577433    0.000000    0.000000   -0.000129
   26.703366    0.582436    0.590217    0.590387   -0.000000    0.000001    0.000246
   26.837554    0.592647    0.600325    0.599516   -0.000000    0.000001    0.000153
   26.971742    0.600443    0.610536    0.606129   -0.000000    0.000001    0.000202
   27.105930    0.609255    0.613383    0.605287   -0.000000    0.000001   -0.000045
   27.240117    0.618001    0.615905    0.608396   -0.000000    0.000001   -0.000251
   27.374305    0.627795    0.621375    0.621239    0.000000    0.000001   -0.000143
   27.508493    0.635136    0.632406    0.630842    0.000000    0.000001   -0.000126
   27.642681    0.644054    0.634989    0.638203    0.000000    0.000001   -0.000135
   27.776868    0.652314    0.642872    0.638847    0.000000    0.000001    0.000032
   27.911056    0.660869    0.653015    0.642363    0.000000    0.000000    0.000119
   28.045244    0.665656    0.653265    0.645840    0.000000    0.000001    0.000585
   28.179432    0.665734    0.656666    0.646141    0.000000    0.000001   -0.000060
   28.313620    0.667373    0.662293    0.652524   -0.000000    0.000000   -0.000039
   28.447807    0.675468    0.668152    0.662973   -0.000000    0.000000   -0.000195
   28.581995    0.683821    0.671081    0.667074    0.000000    0.000000   -0.000220
   28.716183    0.687799    0.675815    0.672924    0.000000    0.000001    0.000151
   28.850371    0.693255    0.685805    0.680414    0.000000    0.000000   -0.000099
   28.984558    0.699327    0.691532    0.681937    0.000000    0.000001   -0.000014
   29.118746    0.703717    0.681955    0.681244    0.000000    0.000001    0.000300
   29.252934    0.704002    0.679195    0.675131    0.000001    0.000001    0.000033
   29.387122    0.704552    0.687732    0.675328    0.000000    0.000001    0.000075
   29.521309    0.704033    0.693259    0.688464    0.000000    0.000001   -0.000098
   29.655497    0.709850    0.704311    0.697437    0.000000    0.000001   -0.000110
   29.789685    0.713045    0.709456    0.702179    0.000000    0.000001   -0.000129
   29.923873    0.718851    0.710572    0.707288    0.000000    0.000001   -0.000001
   30.058061    0.726919    0.715118    0.710463    0.000000    0.000000   -0.000193
   30.192248    0.734892    0.714964    0.708583    0.000000    0.000001   -0.000065
   30.326436    0.726348    0.718144    0.706494    0.000000    0.000001   -0.000215
   30.460624    0.716269    0.707013    0.697298    0.000002    0.000001    0.000298
   30.594812    0.720587    0.697109    0.699855    0.000000    0.000001    0.000168
   30.728999    0.721571    0.704397    0.704021    0.000000    0.000001    0.000125
   30.863187    0.726063    0.710069    0.696698    0.000000    0.000001    0.000276
   30.997375    0.730407    0.718092    0.698423    0.000001    0.000001    0.000370
   31.131563    0.713054    0.701540    0.692383    0.000001    0.000001    0.000294
   31.265750    0.715514    0.691207    0.688277    0.000002    0.000001    0.000246
   31.399938    0.708849    0.691985    0.685731    0.000001    0.000001    0.000232
   31.534126    0.715752    0.696358    0.689867    0.000001    0.000001    0.000223
   31.668314    0.714701    0.700730    0.690815   -0.000001    0.000000    0.000146
   31.802502    0.721743    0.707754    0.697703   -0.000001   -0.000000    0.000128
   31.936689    0.728081    0.714878    0.705737   -0.000001   -0.000000    0.000129
   32.070877    0.733999    0.721317    0.712632   -0.000001    0.000000    0.000127
   32.205065    0.738674    0.726688    0.718019   -0.000001   -0.000001    0.000131
   32.339253    0.743218    0.730775    0.722424   -0.000001   -0.000001    0.000121
   32.473440    0.747356    0.734349    0.726919   -0.000000    0.000001    0.000113
   32.607628    0.751225    0.738493    0.731283    0.000001    0.000000    0.000103
   32.741816    0.754683    0.742394    0.735431    0.000001    0.000000    0.000089
   32.876004    0.757714    0.745746    0.739038    0.000001    0.000000    0.000082
   33.010192    0.760476    0.748993    0.742141   -0.000000    0.000000    0.000088
   33.144379    0.763542    0.752305    0.745622   -0.000000    0.000000    0.000085
   33.278567    0.766482    0.755447    0.748943   -0.000000    0.000000    0.000080
   33.412755    0.769278    0.758426    0.752087    0.000000    0.000000    0.000077
   33.546943    0.771961    0.761303    0.755088    0.000000    0.000000    0.000075
   33.681130    0.774549    0.764073    0.757972    0.000000    0.000000    0.000073
   33.815318    0.777053    0.766748    0.760754    0.000000    0.000000    0.000070
   33.949506    0.779484    0.769340    0.763446    0.000000    0.000000    0.000068
   34.083694    0.781846    0.771856    0.766057    0.000000    0.000000    0.000066
   34.217881    0.784148    0.774303    0.768594    0.000000    0.000000    0.000064
   34.352069    0.786392    0.776687    0.771063    0.000000    0.000000    0.000063
   34.486257    0.788583    0.779011    0.773469    0.000000    0.000000    0.000061
   34.620445    0.790724    0.781281    0.775816    0.000000    0.000000    0.000060
   34.754633    0.792818    0.783499    0.778109    0.000000    0.000000    0.000058
   34.888820    0.794867    0.785668    0.780350    0.000000    0.000000    0.000057
   35.023008    0.796875    0.787790    0.782542    0.000000    0.000000    0.000055
   35.157196    0.798843    0.789869    0.784687    0.000000    0.000000    0.000054
   35.291384    0.800772    0.791907    0.786789    0.000000    0.000000    0.000053
   35.425571    0.802665    0.793904    0.788849    0.000000    0.000000    0.000052
   35.559759    0.804522    0.795864    0.790869    0.000000    0.000000    0.000051
   35.693947    0.806346    0.797786    0.792850    0.000000    0.000000    0.000050
   35.828135    0.808138    0.799674    0.794795    0.000000    0.000000    0.000049
   35.962322    0.809899    0.801528    0.796705    0.000000    0.000000    0.000048
   36.096510    0.811629    0.803350    0.798580    0.000000    0.000000    0.000047
   36.230698    0.813330    0.805140    0.800423    0.000000    0.000000    0.000046
   36.364886    0.815004    0.806900    0.802234    0.000000    0.000000    0.000045
   36.499074    0.816650    0.808631    0.804015    0.000000    0.000000    0.000045
   36.633261    0.818269    0.810334    0.805766    0.000000    0.000000    0.000044
   36.767449    0.819863    0.812009    0.807489    0.000000    0.000000    0.000043
   36.901637    0.821433    0.813657    0.809184    0.000000    0.000000    0.000043
   37.035825    0.822978    0.815280    0.810852    0.000000    0.000000    0.000042
   37.170012    0.824499    0.816877    0.812494    0.000000    0.000000    0.000041
   37.304200    0.825998    0.818450    0.814110    0.000000    0.000000    0.000041
   37.438388    0.827474    0.820000    0.815702    0.000000    0.000000    0.000040
   37.572576    0.828929    0.821526    0.817270    0.000000    0.000000    0.000039
   37.706763    0.830363    0.823030    0.818815    0.000000    0.000000    0.000039
   37.840951    0.831776    0.824512    0.820337    0.000000    0.000000    0.000038
   37.975139    0.833169    0.825972    0.821837    0.000000    0.000000    0.000038
   38.109327    0.834542    0.827412    0.823315    0.000000    0.000000    0.000037
   38.243515    0.835896    0.828831    0.824772    0.000000    0.000000    0.000037
   38.377702    0.837232    0.830231    0.826209    0.000000    0.000000    0.000036
   38.511890    0.838549    0.831611    0.827625    0.000000    0.000000    0.000036
   38.646078    0.839848    0.832972    0.829022    0.000000    0.000000    0.000035
   38.780266    0.841130    0.834314    0.830400    0.000000    0.000000    0.000035
   38.914453    0.842395    0.835639    0.831759    0.000000    0.000000    0.000034
   39.048641    0.843643    0.836946    0.833100    0.000000    0.000000    0.000034
   39.182829    0.844874    0.838235    0.834423    0.000000    0.000000    0.000034
   39.317017    0.846090    0.839507    0.835728    0.000000    0.000000    0.000033
   39.451204    0.847290    0.840763    0.837017    0.000000    0.000000    0.000033
   39.585392    0.848474    0.842003    0.838288    0.000000    0.000000    0.000032
   39.719580    0.849643    0.843226    0.839543    0.000000    0.000000    0.000032
   39.853768    0.850798    0.844434    0.840782    0.000000    0.000000    0.000032
   39.987956    0.851938    0.845627    0.842005    0.000000    0.000000    0.000031
   40.122143    0.853064    0.846805    0.843213    0.000000    0.000000    0.000031
 
 The outermost node in the dielectric function lies at epsilon=  18.9


--------------------------------------------------------------------------------------------------------


    OPTICS:  cpu time   24.3335: real time   31.6677
    4ORBIT:  cpu time    0.0000: real time    0.0000

 total amount of memory used by VASP on root node   699257. kBytes
========================================================================

   base      :      30000. kBytes
   nonl-proj :     487738. kBytes
   fftplans  :       1424. kBytes
   grid      :       5248. kBytes
   one-center:        497. kBytes
   HF        :        129. kBytes
   nonlr-proj:       8753. kBytes
   wavefun   :     165468. kBytes
 
  
  
 General timing and accounting informations for this job:
 ========================================================
  
                  Total CPU time used (sec):    51226.695
                            User time (sec):    51116.819
                          System time (sec):      109.875
                         Elapsed time (sec):    51618.599
  
                   Maximum memory used (kb):     1708712.
                   Average memory used (kb):           0.
  
                          Minor page faults:     36621245
                          Major page faults:           36
                 Voluntary context switches:        22935
