<?xml version="1.0" encoding="ISO-8859-1"?>
<modeling>
 <generator>
  <i name="program" type="string">vasp </i>
  <i name="version" type="string">5.4.1  </i>
  <i name="subversion" type="string">05Feb16 (build Sep 26 2016 13:24:05) complex                          parallel </i>
  <i name="platform" type="string">IFC91_craympich </i>
  <i name="date" type="string">2017 06 13 </i>
  <i name="time" type="string">19:39:01 </i>
 </generator>
 <incar>
  <i type="string" name="SYSTEM"> WO3bulkRT      !Header</i>
  <i type="string" name="PREC">normal           !precision of fft grid</i>
  <i type="string" name="ALGO"> Normal           !Electronic minimizati</i>
  <i type="int" name="NELM">    30</i>
  <i type="int" name="NELMIN">     8</i>
  <i type="int" name="IBRION">    -1</i>
  <i name="EDIFF">     -0.00100000</i>
  <i name="EDIFFG">     -0.04000000</i>
  <i type="int" name="NSW">     0</i>
  <i type="int" name="ISIF">     3</i>
  <i name="ENCUT">    500.00000000</i>
  <i type="int" name="NBANDS">   144</i>
  <i type="int" name="NEDOS">  3000</i>
  <i name="TIME">      0.40000000</i>
  <i type="int" name="ISMEAR">     0</i>
  <i name="SIGMA">      0.01000000</i>
  <i type="logical" name="LOPTICS"> T  </i>
  <v type="int" name="KPOINT_BSE">    -1     0     0     0</v>
  <i type="int" name="NELM">    30</i>
  <i type="logical" name="LHFCALC"> T  </i>
  <i name="HFSCREEN">      0.20000000</i>
  <i name="AEXX">      0.25000000</i>
  <i type="string" name="PRECFOCK">fast</i>
 </incar>
 <kpoints>
  <varray name="kpointlist" >
   <v>       0.12500000       0.12500000       0.12500000 </v>
   <v>       0.37500000       0.12500000       0.12500000 </v>
   <v>      -0.37500000       0.12500000       0.12500000 </v>
   <v>      -0.12500000       0.12500000       0.12500000 </v>
   <v>       0.12500000       0.37500000       0.12500000 </v>
   <v>       0.37500000       0.37500000       0.12500000 </v>
   <v>      -0.37500000       0.37500000       0.12500000 </v>
   <v>      -0.12500000       0.37500000       0.12500000 </v>
   <v>       0.12500000      -0.37500000       0.12500000 </v>
   <v>       0.37500000      -0.37500000       0.12500000 </v>
   <v>      -0.37500000      -0.37500000       0.12500000 </v>
   <v>      -0.12500000      -0.37500000       0.12500000 </v>
   <v>       0.12500000      -0.12500000       0.12500000 </v>
   <v>       0.37500000      -0.12500000       0.12500000 </v>
   <v>      -0.37500000      -0.12500000       0.12500000 </v>
   <v>      -0.12500000      -0.12500000       0.12500000 </v>
   <v>       0.12500000       0.12500000       0.37500000 </v>
   <v>       0.37500000       0.12500000       0.37500000 </v>
   <v>      -0.37500000       0.12500000       0.37500000 </v>
   <v>      -0.12500000       0.12500000       0.37500000 </v>
   <v>       0.12500000       0.37500000       0.37500000 </v>
   <v>       0.37500000       0.37500000       0.37500000 </v>
   <v>      -0.37500000       0.37500000       0.37500000 </v>
   <v>      -0.12500000       0.37500000       0.37500000 </v>
   <v>       0.12500000      -0.37500000       0.37500000 </v>
   <v>       0.37500000      -0.37500000       0.37500000 </v>
   <v>      -0.37500000      -0.37500000       0.37500000 </v>
   <v>      -0.12500000      -0.37500000       0.37500000 </v>
   <v>       0.12500000      -0.12500000       0.37500000 </v>
   <v>       0.37500000      -0.12500000       0.37500000 </v>
   <v>      -0.37500000      -0.12500000       0.37500000 </v>
   <v>      -0.12500000      -0.12500000       0.37500000 </v>
   <v>       0.00000000       0.00000000       0.00000000 </v>
   <v>       0.00000000       0.00000000       0.04166667 </v>
   <v>       0.00000000       0.00000000       0.08333333 </v>
   <v>       0.00000000       0.00000000       0.12500000 </v>
   <v>       0.00000000       0.00000000       0.16666667 </v>
   <v>       0.00000000       0.00000000       0.20833333 </v>
   <v>       0.00000000       0.00000000       0.25000000 </v>
   <v>       0.00000000       0.00000000       0.29166667 </v>
   <v>       0.00000000       0.00000000       0.33333333 </v>
   <v>       0.00000000       0.00000000       0.37500000 </v>
   <v>       0.00000000       0.00000000       0.41666667 </v>
   <v>       0.00000000       0.00000000       0.45833333 </v>
   <v>       0.00000000       0.00000000       0.50000000 </v>
   <v>       0.00000000       0.03836923       0.50010223 </v>
   <v>       0.00000000       0.07673846       0.50020446 </v>
   <v>       0.00000000       0.11510769       0.50030669 </v>
   <v>       0.00000000       0.15347692       0.50040892 </v>
   <v>       0.00000000       0.19184615       0.50051115 </v>
   <v>       0.00000000       0.23021538       0.50061338 </v>
   <v>       0.00000000       0.26858462       0.50071562 </v>
   <v>       0.00000000       0.30695385       0.50081785 </v>
   <v>       0.00000000       0.34532308       0.50092008 </v>
   <v>       0.00000000       0.38369231       0.50102231 </v>
   <v>       0.00000000       0.42206154       0.50112454 </v>
   <v>       0.00000000       0.46043077       0.50122677 </v>
   <v>       0.00000000       0.49880000       0.50132900 </v>
   <v>       0.00000000       0.50000000       0.50000000 </v>
   <v>       0.03846154       0.50000000       0.50000000 </v>
   <v>       0.07692308       0.50000000       0.50000000 </v>
   <v>       0.11538462       0.50000000       0.50000000 </v>
   <v>       0.15384615       0.50000000       0.50000000 </v>
   <v>       0.19230769       0.50000000       0.50000000 </v>
   <v>       0.23076923       0.50000000       0.50000000 </v>
   <v>       0.26923077       0.50000000       0.50000000 </v>
   <v>       0.30769231       0.50000000       0.50000000 </v>
   <v>       0.34615385       0.50000000       0.50000000 </v>
   <v>       0.38461538       0.50000000       0.50000000 </v>
   <v>       0.42307692       0.50000000       0.50000000 </v>
   <v>       0.46153846       0.50000000       0.50000000 </v>
   <v>       0.50000000       0.50000000       0.50000000 </v>
   <v>       0.50000000       0.50120000       0.49867100 </v>
   <v>       0.50000000       0.50110000       0.45711508 </v>
   <v>       0.50000000       0.50100000       0.41555917 </v>
   <v>       0.50000000       0.50090000       0.37400325 </v>
   <v>       0.50000000       0.50080000       0.33244733 </v>
   <v>       0.50000000       0.50070000       0.29089142 </v>
   <v>       0.50000000       0.50060000       0.24933550 </v>
   <v>       0.50000000       0.50050000       0.20777958 </v>
   <v>       0.50000000       0.50040000       0.16622367 </v>
   <v>       0.50000000       0.50030000       0.12466775 </v>
   <v>       0.50000000       0.50020000       0.08311183 </v>
   <v>       0.50000000       0.50010000       0.04155592 </v>
   <v>       0.50000000       0.50000000       0.00000000 </v>
   <v>       0.46153846       0.50000000       0.00000000 </v>
   <v>       0.42307692       0.50000000       0.00000000 </v>
   <v>       0.38461538       0.50000000       0.00000000 </v>
   <v>       0.34615385       0.50000000       0.00000000 </v>
   <v>       0.30769231       0.50000000       0.00000000 </v>
   <v>       0.26923077       0.50000000       0.00000000 </v>
   <v>       0.23076923       0.50000000       0.00000000 </v>
   <v>       0.19230769       0.50000000       0.00000000 </v>
   <v>       0.15384615       0.50000000       0.00000000 </v>
   <v>       0.11538462       0.50000000       0.00000000 </v>
   <v>       0.07692308       0.50000000       0.00000000 </v>
   <v>       0.03846154       0.50000000       0.00000000 </v>
   <v>       0.00000000       0.50000000       0.00000000 </v>
   <v>       0.00000000       0.46153846       0.00000000 </v>
   <v>       0.00000000       0.42307692       0.00000000 </v>
   <v>       0.00000000       0.38461538       0.00000000 </v>
   <v>       0.00000000       0.34615385       0.00000000 </v>
   <v>       0.00000000       0.30769231       0.00000000 </v>
   <v>       0.00000000       0.26923077       0.00000000 </v>
   <v>       0.00000000       0.23076923       0.00000000 </v>
   <v>       0.00000000       0.19230769       0.00000000 </v>
   <v>       0.00000000       0.15384615       0.00000000 </v>
   <v>       0.00000000       0.11538462       0.00000000 </v>
   <v>       0.00000000       0.07692308       0.00000000 </v>
   <v>       0.00000000       0.03846154       0.00000000 </v>
   <v>       0.00000000       0.00000000       0.00000000 </v>
   <v>       0.03846154       0.00000000       0.00000000 </v>
   <v>       0.07692308       0.00000000       0.00000000 </v>
   <v>       0.11538462       0.00000000       0.00000000 </v>
   <v>       0.15384615       0.00000000       0.00000000 </v>
   <v>       0.19230769       0.00000000       0.00000000 </v>
   <v>       0.23076923       0.00000000       0.00000000 </v>
   <v>       0.26923077       0.00000000       0.00000000 </v>
   <v>       0.30769231       0.00000000       0.00000000 </v>
   <v>       0.34615385       0.00000000       0.00000000 </v>
   <v>       0.38461538       0.00000000       0.00000000 </v>
   <v>       0.42307692       0.00000000       0.00000000 </v>
   <v>       0.46153846       0.00000000       0.00000000 </v>
   <v>       0.50000000       0.00000000       0.00000000 </v>
   <v>       0.50000000       0.00000000       0.04166667 </v>
   <v>       0.50000000       0.00000000       0.08333333 </v>
   <v>       0.50000000       0.00000000       0.12500000 </v>
   <v>       0.50000000       0.00000000       0.16666667 </v>
   <v>       0.50000000       0.00000000       0.20833333 </v>
   <v>       0.50000000       0.00000000       0.25000000 </v>
   <v>       0.50000000       0.00000000       0.29166667 </v>
   <v>       0.50000000       0.00000000       0.33333333 </v>
   <v>       0.50000000       0.00000000       0.37500000 </v>
   <v>       0.50000000       0.00000000       0.41666667 </v>
   <v>       0.50000000       0.00000000       0.45833333 </v>
   <v>       0.50000000       0.00000000       0.50000000 </v>
   <v>       0.50000000       0.03836923       0.50010223 </v>
   <v>       0.50000000       0.07673846       0.50020446 </v>
   <v>       0.50000000       0.11510769       0.50030669 </v>
   <v>       0.50000000       0.15347692       0.50040892 </v>
   <v>       0.50000000       0.19184615       0.50051115 </v>
   <v>       0.50000000       0.23021538       0.50061338 </v>
   <v>       0.50000000       0.26858462       0.50071562 </v>
   <v>       0.50000000       0.30695385       0.50081785 </v>
   <v>       0.50000000       0.34532308       0.50092008 </v>
   <v>       0.50000000       0.38369231       0.50102231 </v>
   <v>       0.50000000       0.42206154       0.50112454 </v>
   <v>       0.50000000       0.46043077       0.50122677 </v>
   <v>       0.50000000       0.49880000       0.50132900 </v>
  </varray>
  <varray name="weights" >
   <v>       0.03125000 </v>
   <v>       0.03125000 </v>
   <v>       0.03125000 </v>
   <v>       0.03125000 </v>
   <v>       0.03125000 </v>
   <v>       0.03125000 </v>
   <v>       0.03125000 </v>
   <v>       0.03125000 </v>
   <v>       0.03125000 </v>
   <v>       0.03125000 </v>
   <v>       0.03125000 </v>
   <v>       0.03125000 </v>
   <v>       0.03125000 </v>
   <v>       0.03125000 </v>
   <v>       0.03125000 </v>
   <v>       0.03125000 </v>
   <v>       0.03125000 </v>
   <v>       0.03125000 </v>
   <v>       0.03125000 </v>
   <v>       0.03125000 </v>
   <v>       0.03125000 </v>
   <v>       0.03125000 </v>
   <v>       0.03125000 </v>
   <v>       0.03125000 </v>
   <v>       0.03125000 </v>
   <v>       0.03125000 </v>
   <v>       0.03125000 </v>
   <v>       0.03125000 </v>
   <v>       0.03125000 </v>
   <v>       0.03125000 </v>
   <v>       0.03125000 </v>
   <v>       0.03125000 </v>
   <v>       0.00000000 </v>
   <v>       0.00000000 </v>
   <v>       0.00000000 </v>
   <v>       0.00000000 </v>
   <v>       0.00000000 </v>
   <v>       0.00000000 </v>
   <v>       0.00000000 </v>
   <v>       0.00000000 </v>
   <v>       0.00000000 </v>
   <v>       0.00000000 </v>
   <v>       0.00000000 </v>
   <v>       0.00000000 </v>
   <v>       0.00000000 </v>
   <v>       0.00000000 </v>
   <v>       0.00000000 </v>
   <v>       0.00000000 </v>
   <v>       0.00000000 </v>
   <v>       0.00000000 </v>
   <v>       0.00000000 </v>
   <v>       0.00000000 </v>
   <v>       0.00000000 </v>
   <v>       0.00000000 </v>
   <v>       0.00000000 </v>
   <v>       0.00000000 </v>
   <v>       0.00000000 </v>
   <v>       0.00000000 </v>
   <v>       0.00000000 </v>
   <v>       0.00000000 </v>
   <v>       0.00000000 </v>
   <v>       0.00000000 </v>
   <v>       0.00000000 </v>
   <v>       0.00000000 </v>
   <v>       0.00000000 </v>
   <v>       0.00000000 </v>
   <v>       0.00000000 </v>
   <v>       0.00000000 </v>
   <v>       0.00000000 </v>
   <v>       0.00000000 </v>
   <v>       0.00000000 </v>
   <v>       0.00000000 </v>
   <v>       0.00000000 </v>
   <v>       0.00000000 </v>
   <v>       0.00000000 </v>
   <v>       0.00000000 </v>
   <v>       0.00000000 </v>
   <v>       0.00000000 </v>
   <v>       0.00000000 </v>
   <v>       0.00000000 </v>
   <v>       0.00000000 </v>
   <v>       0.00000000 </v>
   <v>       0.00000000 </v>
   <v>       0.00000000 </v>
   <v>       0.00000000 </v>
   <v>       0.00000000 </v>
   <v>       0.00000000 </v>
   <v>       0.00000000 </v>
   <v>       0.00000000 </v>
   <v>       0.00000000 </v>
   <v>       0.00000000 </v>
   <v>       0.00000000 </v>
   <v>       0.00000000 </v>
   <v>       0.00000000 </v>
   <v>       0.00000000 </v>
   <v>       0.00000000 </v>
   <v>       0.00000000 </v>
   <v>       0.00000000 </v>
   <v>       0.00000000 </v>
   <v>       0.00000000 </v>
   <v>       0.00000000 </v>
   <v>       0.00000000 </v>
   <v>       0.00000000 </v>
   <v>       0.00000000 </v>
   <v>       0.00000000 </v>
   <v>       0.00000000 </v>
   <v>       0.00000000 </v>
   <v>       0.00000000 </v>
   <v>       0.00000000 </v>
   <v>       0.00000000 </v>
   <v>       0.00000000 </v>
   <v>       0.00000000 </v>
   <v>       0.00000000 </v>
   <v>       0.00000000 </v>
   <v>       0.00000000 </v>
   <v>       0.00000000 </v>
   <v>       0.00000000 </v>
   <v>       0.00000000 </v>
   <v>       0.00000000 </v>
   <v>       0.00000000 </v>
   <v>       0.00000000 </v>
   <v>       0.00000000 </v>
   <v>       0.00000000 </v>
   <v>       0.00000000 </v>
   <v>       0.00000000 </v>
   <v>       0.00000000 </v>
   <v>       0.00000000 </v>
   <v>       0.00000000 </v>
   <v>       0.00000000 </v>
   <v>       0.00000000 </v>
   <v>       0.00000000 </v>
   <v>       0.00000000 </v>
   <v>       0.00000000 </v>
   <v>       0.00000000 </v>
   <v>       0.00000000 </v>
   <v>       0.00000000 </v>
   <v>       0.00000000 </v>
   <v>       0.00000000 </v>
   <v>       0.00000000 </v>
   <v>       0.00000000 </v>
   <v>       0.00000000 </v>
   <v>       0.00000000 </v>
   <v>       0.00000000 </v>
   <v>       0.00000000 </v>
   <v>       0.00000000 </v>
   <v>       0.00000000 </v>
   <v>       0.00000000 </v>
   <v>       0.00000000 </v>
   <v>       0.00000000 </v>
  </varray>
 </kpoints>
 <parameters>
  <separator name="general" >
   <i type="string" name="SYSTEM">WO3bulkRT      !Header</i>
   <i type="logical" name="LCOMPAT"> F  </i>
  </separator>
  <separator name="electronic" >
   <i type="string" name="PREC">normal</i>
   <i name="ENMAX">    500.00000000</i>
   <i name="ENAUG">    605.39200000</i>
   <i name="EDIFF">      0.00100000</i>
   <i type="int" name="IALGO">    38</i>
   <i type="int" name="IWAVPR">    10</i>
   <i type="int" name="NBANDS">   144</i>
   <i name="NELECT">    192.00000000</i>
   <i type="int" name="TURBO">     0</i>
   <i type="int" name="IRESTART">     0</i>
   <i type="int" name="NREBOOT">     0</i>
   <i type="int" name="NMIN">     0</i>
   <i name="EREF">      0.00000000</i>
   <separator name="electronic smearing" >
    <i type="int" name="ISMEAR">     0</i>
    <i name="SIGMA">      0.01000000</i>
    <i name="KSPACING">      0.50000000</i>
    <i type="logical" name="KGAMMA"> T  </i>
   </separator>
   <separator name="electronic projectors" >
    <i type="logical" name="LREAL"> F  </i>
    <v name="ROPT">      0.00000000      0.00000000</v>
    <i type="int" name="LMAXPAW">  -100</i>
    <i type="int" name="LMAXMIX">     2</i>
    <i type="logical" name="NLSPLINE"> F  </i>
   </separator>
   <separator name="electronic startup" >
    <i type="int" name="ISTART">     1</i>
    <i type="int" name="ICHARG">     0</i>
    <i type="int" name="INIWAV">     1</i>
   </separator>
   <separator name="electronic spin" >
    <i type="int" name="ISPIN">     1</i>
    <i type="logical" name="LNONCOLLINEAR"> F  </i>
    <v name="MAGMOM">      1.00000000      1.00000000      1.00000000      1.00000000      1.00000000      1.00000000      1.00000000      1.00000000      1.00000000      1.00000000      1.00000000      1.00000000      1.00000000      1.00000000      1.00000000      1.00000000      1.00000000      1.00000000      1.00000000      1.00000000
      1.00000000      1.00000000      1.00000000      1.00000000      1.00000000      1.00000000      1.00000000      1.00000000      1.00000000      1.00000000      1.00000000      1.00000000</v>
    <i name="NUPDOWN">     -1.00000000</i>
    <i type="logical" name="LSORBIT"> F  </i>
    <v name="SAXIS">      0.00000000      0.00000000      1.00000000</v>
    <i type="logical" name="LSPIRAL"> F  </i>
    <v name="QSPIRAL">      0.00000000      0.00000000      0.00000000</v>
    <i type="logical" name="LZEROZ"> F  </i>
   </separator>
   <separator name="electronic exchange-correlation" >
    <i type="logical" name="LASPH"> F  </i>
    <i type="logical" name="LMETAGGA"> F  </i>
   </separator>
   <separator name="electronic convergence" >
    <i type="int" name="NELM">    30</i>
    <i type="int" name="NELMDL">     0</i>
    <i type="int" name="NELMIN">     8</i>
    <i name="ENINI">    500.00000000</i>
    <separator name="electronic convergence detail" >
     <i type="logical" name="LDIAG"> T  </i>
     <i type="logical" name="LSUBROT"> F  </i>
     <i name="WEIMIN">      0.00000000</i>
     <i name="EBREAK">      0.00000174</i>
     <i name="DEPER">      0.30000000</i>
     <i type="int" name="NRMM">     4</i>
     <i name="TIME">      0.40000000</i>
    </separator>
   </separator>
   <separator name="electronic mixer" >
    <i name="AMIX">      0.40000000</i>
    <i name="BMIX">      1.00000000</i>
    <i name="AMIN">      0.10000000</i>
    <i name="AMIX_MAG">      1.60000000</i>
    <i name="BMIX_MAG">      1.00000000</i>
    <separator name="electronic mixer details" >
     <i type="int" name="IMIX">     1</i>
     <i type="logical" name="MIXFIRST"> F  </i>
     <i type="int" name="MAXMIX">   -45</i>
     <i name="WC">    100.00000000</i>
     <i type="int" name="INIMIX">     1</i>
     <i type="int" name="MIXPRE">     1</i>
     <i type="int" name="MREMOVE">     5</i>
    </separator>
   </separator>
   <separator name="electronic dipolcorrection" >
    <i type="logical" name="LDIPOL"> F  </i>
    <i type="logical" name="LMONO"> F  </i>
    <i type="int" name="IDIPOL">     0</i>
    <i name="EPSILON">      1.00000000</i>
    <v name="DIPOL">   -100.00000000   -100.00000000   -100.00000000</v>
    <i name="EFIELD">      0.00000000</i>
   </separator>
  </separator>
  <separator name="grids" >
   <i type="int" name="NGX">    42</i>
   <i type="int" name="NGY">    42</i>
   <i type="int" name="NGZ">    48</i>
   <i type="int" name="NGXF">    84</i>
   <i type="int" name="NGYF">    84</i>
   <i type="int" name="NGZF">    96</i>
   <i type="logical" name="ADDGRID"> F  </i>
  </separator>
  <separator name="ionic" >
   <i type="int" name="NSW">     0</i>
   <i type="int" name="IBRION">    -1</i>
   <i type="int" name="ISIF">     3</i>
   <i name="PSTRESS">      0.00000000</i>
   <i name="EDIFFG">     -0.04000000</i>
   <i type="int" name="NFREE">     0</i>
   <i name="POTIM">      0.50000000</i>
   <i name="SMASS">     -3.00000000</i>
   <i name="SCALEE">      1.00000000</i>
  </separator>
  <separator name="ionic md" >
   <i name="TEBEG">      0.00010000</i>
   <i name="TEEND">      0.00010000</i>
   <i type="int" name="NBLOCK">     1</i>
   <i type="int" name="KBLOCK">     1</i>
   <i type="int" name="NPACO">   256</i>
   <i name="APACO">     16.00000000</i>
  </separator>
  <separator name="symmetry" >
   <i type="int" name="ISYM">     3</i>
   <i name="SYMPREC">      0.00001000</i>
  </separator>
  <separator name="dos" >
   <i type="logical" name="LORBIT"> F  </i>
   <v name="RWIGS">     -1.00000000     -1.00000000</v>
   <i type="int" name="NEDOS">  3000</i>
   <i name="EMIN">     10.00000000</i>
   <i name="EMAX">    -10.00000000</i>
   <i name="EFERMI">      0.00000000</i>
  </separator>
  <separator name="writing" >
   <i type="int" name="NWRITE">     2</i>
   <i type="logical" name="LWAVE"> T  </i>
   <i type="logical" name="LCHARG"> T  </i>
   <i type="logical" name="LPARD"> F  </i>
   <i type="logical" name="LVTOT"> F  </i>
   <i type="logical" name="LVHAR"> F  </i>
   <i type="logical" name="LELF"> F  </i>
   <i type="logical" name="LOPTICS"> T  </i>
   <v name="STM">      0.00000000      0.00000000      0.00000000      0.00000000      0.00000000      0.00000000      0.00000000</v>
  </separator>
  <separator name="performance" >
   <i type="int" name="NPAR">    24</i>
   <i type="int" name="NSIM">     4</i>
   <i type="int" name="NBLK">    -1</i>
   <i type="logical" name="LPLANE"> T  </i>
   <i type="logical" name="LSCALAPACK"> T  </i>
   <i type="logical" name="LSCAAWARE"> F  </i>
   <i type="logical" name="LSCALU"> F  </i>
   <i type="logical" name="LASYNC"> F  </i>
   <i type="logical" name="LORBITALREAL"> F  </i>
  </separator>
  <separator name="miscellaneous" >
   <i type="int" name="IDIOT">     3</i>
   <i type="logical" name="LMUSIC"> F  </i>
   <v name="POMASS">    183.85000000     16.00000000</v>
   <v name="DARWINR">      0.00000000      0.00000000</v>
   <v name="DARWINV">      1.00000000      1.00000000</v>
   <i type="logical" name="LCORR"> T  </i>
  </separator>
  <i type="logical" name="GGA_COMPAT"> T  </i>
  <i type="logical" name="LBERRY"> F  </i>
  <i type="int" name="ICORELEVEL">     0</i>
  <i type="logical" name="LDAU"> F  </i>
  <i type="int" name="I_CONSTRAINED_M">     0</i>
  <separator name="electronic exchange-correlation" >
   <i type="string" name="GGA">--</i>
   <i type="int" name="VOSKOWN">     0</i>
   <i type="logical" name="LHFCALC"> T  </i>
   <i type="string" name="PRECFOCK">fast</i>
   <i type="logical" name="LSYMGRAD"> F  </i>
   <i type="logical" name="LHFONE"> F  </i>
   <i type="logical" name="LRHFCALC"> F  </i>
   <i type="logical" name="LTHOMAS"> F  </i>
   <i type="logical" name="LMODELHF"> F  </i>
   <i name="ENCUT4O">     -1.00000000</i>
   <i type="int" name="EXXOEP">     0</i>
   <i type="int" name="FOURORBIT">     0</i>
   <i name="AEXX">      0.25000000</i>
   <i name="HFALPHA">     -1.00000000</i>
   <i name="MCALPHA">      0.00000000</i>
   <i name="ALDAX">      0.75000000</i>
   <i name="AGGAX">      0.75000000</i>
   <i name="ALDAC">      1.00000000</i>
   <i name="AGGAC">      1.00000000</i>
   <i type="int" name="NKREDX">     1</i>
   <i type="int" name="NKREDY">     1</i>
   <i type="int" name="NKREDZ">     1</i>
   <i type="logical" name="SHIFTRED"> F  </i>
   <i type="logical" name="ODDONLY"> F  </i>
   <i type="logical" name="EVENONLY"> F  </i>
   <i type="int" name="LMAXFOCK">     4</i>
   <i type="int" name="NMAXFOCKAE">     1</i>
   <i type="logical" name="LFOCKAEDFT"> F  </i>
   <i name="HFSCREEN">      0.20000000</i>
   <i name="HFSCREENC">      0.20000000</i>
   <i type="int" name="NBANDSGWLOW">     1</i>
  </separator>
  <separator name="vdW DFT" >
   <i type="logical" name="LUSE_VDW"> F  </i>
   <i name="Zab_VDW">     -0.84910000</i>
   <i name="PARAM1">      0.12340000</i>
   <i name="PARAM2">      1.00000000</i>
   <i name="PARAM3">      0.00000000</i>
  </separator>
  <separator name="model GW" >
   <i type="int" name="MODEL_GW">     0</i>
   <i name="MODEL_EPS0">      8.26386036</i>
   <i name="MODEL_ALPHA">      1.00000000</i>
  </separator>
  <separator name="linear response parameters" >
   <i type="logical" name="LEPSILON"> F  </i>
   <i type="logical" name="LRPA"> F  </i>
   <i type="logical" name="LNABLA"> F  </i>
   <i type="logical" name="LVEL"> F  </i>
   <i type="int" name="KINTER">     0</i>
   <i name="CSHIFT">      0.10000000</i>
   <i name="OMEGAMAX">     -1.00000000</i>
   <i name="DEG_THRESHOLD">      0.00200000</i>
  </separator>
  <separator name="orbital magnetization" >
   <i type="logical" name="NUCIND"> F  </i>
   <v name="MAGPOS">      0.00000000      0.00000000      0.00000000</v>
   <i type="logical" name="LNICSALL"> T  </i>
   <i type="logical" name="ORBITALMAG"> F  </i>
   <i type="logical" name="LMAGBLOCH"> F  </i>
   <i type="logical" name="LCHIMAG"> F  </i>
   <i type="logical" name="LGAUGE"> T  </i>
   <i type="int" name="MAGATOM">     0</i>
   <v name="MAGDIPOL">      0.00000000      0.00000000      0.00000000</v>
   <v name="AVECCONST">      0.00000000      0.00000000      0.00000000</v>
  </separator>
  <separator name="response functions" >
   <i type="logical" name="LADDER"> F  </i>
   <i type="logical" name="LFXC"> F  </i>
   <i type="logical" name="LHARTREE"> T  </i>
   <i type="int" name="IBSE">     0</i>
   <v type="int" name="KPOINT">    -1     0     0     0</v>
   <i type="logical" name="LTCTE"> F  </i>
   <i type="logical" name="LTETE"> F  </i>
   <i type="logical" name="LTRIPLET"> F  </i>
   <i type="logical" name="LFXCEPS"> F  </i>
   <i type="logical" name="LFXHEG"> F  </i>
   <i type="int" name="NATURALO">     0</i>
   <i type="logical" name="L2ORDER"> F  </i>
   <i type="logical" name="LUSEW"> F  </i>
   <i name="ENCUTGW">     -2.00000000</i>
   <i name="ENCUTGWSOFT">     -2.00000000</i>
   <i name="ENCUTLF">     -1.00000000</i>
   <i type="int" name="LMAXMP2">    -1</i>
   <i name="SCISSOR">      0.00000000</i>
   <i type="int" name="NOMEGA">     0</i>
   <i type="int" name="NOMEGAR">     0</i>
   <i type="int" name="NBANDSGW">    -1</i>
   <i type="int" name="NBANDSO">    -1</i>
   <i type="int" name="NBANDSV">    -1</i>
   <i type="int" name="NELM">    30</i>
   <i type="int" name="NELMHF">     1</i>
   <i type="int" name="DIM">     3</i>
   <i type="int" name="ANTIRES">     0</i>
   <i name="OMEGAMAX">    -30.00000000</i>
   <i name="OMEGAMIN">    -30.00000000</i>
   <i name="OMEGATL">   -200.00000000</i>
   <i type="int" name="OMEGAGRID">     0</i>
   <i name="CSHIFT">     -0.10000000</i>
   <i type="logical" name="SELFENERGY"> F  </i>
   <i type="logical" name="LSPECTRAL"> F  </i>
   <i type="logical" name="LSPECTRALGW"> F  </i>
   <i type="logical" name="LSINGLES"> F  </i>
   <i type="logical" name="LFERMIGW"> F  </i>
   <i type="logical" name="ODDONLYGW"> F  </i>
   <i type="logical" name="EVENONLYGW"> F  </i>
   <i type="int" name="NKREDLFX">     1</i>
   <i type="int" name="NKREDLFY">     1</i>
   <i type="int" name="NKREDLFZ">     1</i>
   <i type="int" name="MAXMEM">  1800</i>
   <i type="int" name="TELESCOPE">     0</i>
   <i type="int" name="TAUPAR">     1</i>
   <i type="int" name="OMEGAPAR">    -1</i>
   <i name="LAMBDA">      1.00000000</i>
  </separator>
  <separator name="External order field" >
   <i name="OFIELD_KAPPA">      0.00000000</i>
   <v name="OFIELD_K">      0.00000000      0.00000000      0.00000000</v>
   <i name="OFIELD_Q6_NEAR">      0.00000000</i>
   <i name="OFIELD_Q6_FAR">      0.00000000</i>
   <i name="OFIELD_A">      0.00000000</i>
  </separator>
 </parameters>
 <atominfo>
  <atoms>      32 </atoms>
  <types>       2 </types>
  <array name="atoms" >
   <dimension dim="1">ion</dimension>
   <field type="string">element</field>
   <field type="int">atomtype</field>
   <set>
    <rc><c>W </c><c>   1</c></rc>
    <rc><c>W </c><c>   1</c></rc>
    <rc><c>W </c><c>   1</c></rc>
    <rc><c>W </c><c>   1</c></rc>
    <rc><c>W </c><c>   1</c></rc>
    <rc><c>W </c><c>   1</c></rc>
    <rc><c>W </c><c>   1</c></rc>
    <rc><c>W </c><c>   1</c></rc>
    <rc><c>O </c><c>   2</c></rc>
    <rc><c>O </c><c>   2</c></rc>
    <rc><c>O </c><c>   2</c></rc>
    <rc><c>O </c><c>   2</c></rc>
    <rc><c>O </c><c>   2</c></rc>
    <rc><c>O </c><c>   2</c></rc>
    <rc><c>O </c><c>   2</c></rc>
    <rc><c>O </c><c>   2</c></rc>
    <rc><c>O </c><c>   2</c></rc>
    <rc><c>O </c><c>   2</c></rc>
    <rc><c>O </c><c>   2</c></rc>
    <rc><c>O </c><c>   2</c></rc>
    <rc><c>O </c><c>   2</c></rc>
    <rc><c>O </c><c>   2</c></rc>
    <rc><c>O </c><c>   2</c></rc>
    <rc><c>O </c><c>   2</c></rc>
    <rc><c>O </c><c>   2</c></rc>
    <rc><c>O </c><c>   2</c></rc>
    <rc><c>O </c><c>   2</c></rc>
    <rc><c>O </c><c>   2</c></rc>
    <rc><c>O </c><c>   2</c></rc>
    <rc><c>O </c><c>   2</c></rc>
    <rc><c>O </c><c>   2</c></rc>
    <rc><c>O </c><c>   2</c></rc>
   </set>
  </array>
  <array name="atomtypes" >
   <dimension dim="1">type</dimension>
   <field type="int">atomspertype</field>
   <field type="string">element</field>
   <field>mass</field>
   <field>valence</field>
   <field type="string">pseudopotential</field>
   <set>
    <rc><c>   8</c><c>W </c><c>    183.85000000</c><c>      6.00000000</c><c>  PAW_PBE W 08Apr2002                   </c></rc>
    <rc><c>  24</c><c>O </c><c>     16.00000000</c><c>      6.00000000</c><c>  PAW_PBE O 08Apr2002                   </c></rc>
   </set>
  </array>
 </atominfo>
 <structure name="initialpos" >
  <crystal>
   <varray name="basis" >
    <v>       7.40769148      -0.00000447       0.04774419 </v>
    <v>      -0.00000241       7.63362109       0.00000230 </v>
    <v>      -0.06996577       0.00000234       7.79368924 </v>
   </varray>
   <i name="volume">    440.73921908 </i>
   <varray name="rec_basis" >
    <v>       0.13498701       0.00000004       0.00121181 </v>
    <v>       0.00000008       0.13099943      -0.00000004 </v>
    <v>      -0.00082693      -0.00000004       0.12830152 </v>
   </varray>
  </crystal>
  <varray name="positions" >
   <v>       0.24871895       0.52919760       0.21843662 </v>
   <v>       0.25128043       0.02919740       0.28156330 </v>
   <v>       0.74871958       0.97080260       0.71843670 </v>
   <v>       0.75128105       0.47080240       0.78156338 </v>
   <v>       0.25135350       0.53115305       0.71951782 </v>
   <v>       0.24864429       0.03115295       0.78048239 </v>
   <v>       0.75135570       0.96884705       0.21951761 </v>
   <v>       0.74864651       0.46884695       0.28048219 </v>
   <v>       0.50027487       0.51805216       0.26406055 </v>
   <v>       0.99972547       0.01805187       0.23593613 </v>
   <v>       0.00027453       0.98194810       0.76406387 </v>
   <v>       0.49972513       0.48194781       0.73593945 </v>
   <v>       0.49966006       0.98155846       0.26327994 </v>
   <v>       0.00033999       0.48155832       0.23672376 </v>
   <v>       0.99966001       0.51844171       0.76327624 </v>
   <v>       0.50033993       0.01844157       0.73672006 </v>
   <v>       0.23169293       0.76001049       0.23643129 </v>
   <v>       0.26830763       0.26001028       0.26356826 </v>
   <v>       0.73169233       0.73998972       0.73643175 </v>
   <v>       0.76830709       0.23998951       0.76356870 </v>
   <v>       0.26931988       0.76019055       0.75355265 </v>
   <v>       0.23068075       0.26019057       0.74644692 </v>
   <v>       0.76931922       0.73980942       0.25355307 </v>
   <v>       0.73068014       0.23980945       0.24644736 </v>
   <v>       0.23564171       0.52291051       0.49543574 </v>
   <v>       0.26436217       0.02291065       0.00456394 </v>
   <v>       0.73563783       0.97708936       0.99543605 </v>
   <v>       0.76435829       0.47708950       0.50456426 </v>
   <v>       0.23561295       0.00513995       0.50460565 </v>
   <v>       0.26438404       0.50513992       0.99539412 </v>
   <v>       0.73561596       0.49486007       0.00460588 </v>
   <v>       0.76438705       0.99486004       0.49539435 </v>
  </varray>
 </structure>
 <calculation>
  <scstep>
   <time name="dav"> 5553.40 5561.86</time>
   <time name="total"> 5553.75 5562.28</time>
   <energy>
    <i name="alphaZ">    665.46879839 </i>
    <i name="ewald">  -8439.41057219 </i>
    <i name="hartreedc">  -4063.88323824 </i>
    <i name="XCdc">    221.62507362 </i>
    <i name="pawpsdc">  32977.26034042 </i>
    <i name="pawaedc"> -32638.41479407 </i>
    <i name="eentropy">     -0.00000000 </i>
    <i name="bandstr">  -1512.44587043 </i>
    <i name="atom">  11919.94983009 </i>
    <i name="e_fr_energy">   -355.42741166 </i>
    <i name="e_wo_entrp">   -355.42741166 </i>
    <i name="e_0_energy">   -355.42741166 </i>
   </energy>
  </scstep>
  <scstep>
   <time name="dav"> 4657.96 4665.04</time>
   <time name="total"> 4658.32 4665.44</time>
   <energy>
    <i name="e_fr_energy">   -355.42638193 </i>
    <i name="e_wo_entrp">   -355.42638193 </i>
    <i name="e_0_energy">   -355.42638193 </i>
   </energy>
  </scstep>
  <scstep>
   <time name="dav"> 3922.94 3928.97</time>
   <time name="total"> 3923.29 3929.34</time>
   <energy>
    <i name="e_fr_energy">   -355.42661317 </i>
    <i name="e_wo_entrp">   -355.42661317 </i>
    <i name="e_0_energy">   -355.42661317 </i>
   </energy>
  </scstep>
  <scstep>
   <time name="dav"> 3829.68 3835.58</time>
   <time name="total"> 3830.03 3835.95</time>
   <energy>
    <i name="e_fr_energy">   -355.42655678 </i>
    <i name="e_wo_entrp">   -355.42655678 </i>
    <i name="e_0_energy">   -355.42655678 </i>
   </energy>
  </scstep>
  <scstep>
   <time name="dav"> 3839.36 3845.26</time>
   <time name="total"> 3839.69 3845.63</time>
   <energy>
    <i name="e_fr_energy">   -355.42656730 </i>
    <i name="e_wo_entrp">   -355.42656730 </i>
    <i name="e_0_energy">   -355.42656730 </i>
   </energy>
  </scstep>
  <scstep>
   <time name="dav"> 3834.84 3840.74</time>
   <time name="total"> 3835.05 3841.18</time>
   <energy>
    <i name="e_fr_energy">   -355.42656447 </i>
    <i name="e_wo_entrp">   -355.42656447 </i>
    <i name="e_0_energy">   -355.42656447 </i>
   </energy>
  </scstep>
  <scstep>
   <time name="dav"> 3846.50 3852.41</time>
   <time name="total"> 3846.82 3852.78</time>
   <energy>
    <i name="e_fr_energy">   -355.42656496 </i>
    <i name="e_wo_entrp">   -355.42656496 </i>
    <i name="e_0_energy">   -355.42656496 </i>
   </energy>
  </scstep>
  <scstep>
   <time name="dav"> 3795.56 3801.40</time>
   <time name="total"> 3795.79 3801.69</time>
   <energy>
    <i name="alphaZ">    665.46879839 </i>
    <i name="ewald">  -8439.41057219 </i>
    <i name="hartreedc">  -4062.77306424 </i>
    <i name="XCdc">    221.54007251 </i>
    <i name="pawpsdc">  32968.65155637 </i>
    <i name="pawaedc"> -32629.78931655 </i>
    <i name="eentropy">     -0.00000000 </i>
    <i name="bandstr">  -1513.38904391 </i>
    <i name="atom">  11919.94983009 </i>
    <i name="e_fr_energy">   -355.42656477 </i>
    <i name="e_wo_entrp">   -355.42656477 </i>
    <i name="e_0_energy">   -355.42656477 </i>
   </energy>
  </scstep>
  <structure>
   <crystal>
    <varray name="basis" >
     <v>       7.40769148      -0.00000447       0.04774419 </v>
     <v>      -0.00000241       7.63362109       0.00000230 </v>
     <v>      -0.06996577       0.00000234       7.79368924 </v>
    </varray>
    <i name="volume">    440.73921908 </i>
    <varray name="rec_basis" >
     <v>       0.13498701       0.00000004       0.00121181 </v>
     <v>       0.00000008       0.13099943      -0.00000004 </v>
     <v>      -0.00082693      -0.00000004       0.12830152 </v>
    </varray>
   </crystal>
   <varray name="positions" >
    <v>       0.24871895       0.52919760       0.21843662 </v>
    <v>       0.25128043       0.02919740       0.28156330 </v>
    <v>       0.74871958       0.97080260       0.71843670 </v>
    <v>       0.75128105       0.47080240       0.78156338 </v>
    <v>       0.25135350       0.53115305       0.71951782 </v>
    <v>       0.24864429       0.03115295       0.78048239 </v>
    <v>       0.75135570       0.96884705       0.21951761 </v>
    <v>       0.74864651       0.46884695       0.28048219 </v>
    <v>       0.50027487       0.51805216       0.26406055 </v>
    <v>       0.99972547       0.01805187       0.23593613 </v>
    <v>       0.00027453       0.98194810       0.76406387 </v>
    <v>       0.49972513       0.48194781       0.73593945 </v>
    <v>       0.49966006       0.98155846       0.26327994 </v>
    <v>       0.00033999       0.48155832       0.23672376 </v>
    <v>       0.99966001       0.51844171       0.76327624 </v>
    <v>       0.50033993       0.01844157       0.73672006 </v>
    <v>       0.23169293       0.76001049       0.23643129 </v>
    <v>       0.26830763       0.26001028       0.26356826 </v>
    <v>       0.73169233       0.73998972       0.73643175 </v>
    <v>       0.76830709       0.23998951       0.76356870 </v>
    <v>       0.26931988       0.76019055       0.75355265 </v>
    <v>       0.23068075       0.26019057       0.74644692 </v>
    <v>       0.76931922       0.73980942       0.25355307 </v>
    <v>       0.73068014       0.23980945       0.24644736 </v>
    <v>       0.23564171       0.52291051       0.49543574 </v>
    <v>       0.26436217       0.02291065       0.00456394 </v>
    <v>       0.73563783       0.97708936       0.99543605 </v>
    <v>       0.76435829       0.47708950       0.50456426 </v>
    <v>       0.23561295       0.00513995       0.50460565 </v>
    <v>       0.26438404       0.50513992       0.99539412 </v>
    <v>       0.73561596       0.49486007       0.00460588 </v>
    <v>       0.76438705       0.99486004       0.49539435 </v>
   </varray>
  </structure>
  <varray name="forces" >
   <v>       0.00219387       0.00241610      -0.00028400 </v>
   <v>      -0.00132314       0.00242751       0.00036510 </v>
   <v>       0.00132314      -0.00242751      -0.00036510 </v>
   <v>      -0.00219387      -0.00241610       0.00028400 </v>
   <v>      -0.00165629       0.00148850      -0.00152965 </v>
   <v>       0.00251641       0.00150984       0.00140353 </v>
   <v>      -0.00251641      -0.00150984      -0.00140353 </v>
   <v>       0.00165629      -0.00148850       0.00152965 </v>
   <v>       0.00049706      -0.00429438      -0.00782190 </v>
   <v>      -0.00054316      -0.00426037       0.00776498 </v>
   <v>       0.00054316       0.00426037      -0.00776498 </v>
   <v>      -0.00049706       0.00429438       0.00782190 </v>
   <v>      -0.00023157       0.00555783      -0.00857855 </v>
   <v>       0.00027642       0.00552981       0.00853275 </v>
   <v>      -0.00027642      -0.00552981      -0.00853275 </v>
   <v>       0.00023157      -0.00555783       0.00857855 </v>
   <v>       0.00434902       0.00099272       0.00690416 </v>
   <v>      -0.00447920       0.00101203      -0.00693167 </v>
   <v>       0.00447920      -0.00101203       0.00693167 </v>
   <v>      -0.00434902      -0.00099272      -0.00690416 </v>
   <v>      -0.00505183      -0.00018381      -0.00831171 </v>
   <v>       0.00492709      -0.00023159       0.00832480 </v>
   <v>      -0.00492709       0.00023159      -0.00832480 </v>
   <v>       0.00505183       0.00018381       0.00831171 </v>
   <v>       0.00362483      -0.00313506       0.00215904 </v>
   <v>      -0.00374597      -0.00314360      -0.00214930 </v>
   <v>       0.00374597       0.00314360       0.00214930 </v>
   <v>      -0.00362483       0.00313506      -0.00215904 </v>
   <v>       0.00345146       0.00366905      -0.00143054 </v>
   <v>      -0.00356902       0.00367089       0.00146540 </v>
   <v>       0.00356902      -0.00367089      -0.00146540 </v>
   <v>      -0.00345146      -0.00366905       0.00143054 </v>
  </varray>
  <varray name="stress" >
   <v>      -0.17108918       0.00217882       0.01583440 </v>
   <v>       0.00217895       0.16173006       0.00005354 </v>
   <v>       0.01583440       0.00005382      -0.68468672 </v>
  </varray>
  <energy>
   <i name="e_fr_energy">   -355.42656477 </i>
   <i name="e_wo_entrp">   -355.42656477 </i>
   <i name="e_0_energy">     -0.00000000 </i>
  </energy>
  <time name="totalsc">38997.6339362.23</time>
  <eigenvalues>
   <array>
    <dimension dim="1">band</dimension>
    <dimension dim="2">kpoint</dimension>
    <dimension dim="3">spin</dimension>
    <field>eigene</field>
    <field>occ</field>
    <set>
     <set comment="spin 1">
      <set comment="kpoint 1">
       <r>  -20.5951    1.0000 </r>
       <r>  -20.3367    1.0000 </r>
       <r>  -20.2765    1.0000 </r>
       <r>  -20.2237    1.0000 </r>
       <r>  -20.0193    1.0000 </r>
       <r>  -19.9620    1.0000 </r>
       <r>  -19.8993    1.0000 </r>
       <r>  -19.6984    1.0000 </r>
       <r>  -19.6900    1.0000 </r>
       <r>  -19.6779    1.0000 </r>
       <r>  -19.6738    1.0000 </r>
       <r>  -19.6574    1.0000 </r>
       <r>  -18.9661    1.0000 </r>
       <r>  -18.9143    1.0000 </r>
       <r>  -18.9075    1.0000 </r>
       <r>  -18.9006    1.0000 </r>
       <r>  -18.8713    1.0000 </r>
       <r>  -18.8665    1.0000 </r>
       <r>  -18.8380    1.0000 </r>
       <r>  -18.8123    1.0000 </r>
       <r>  -18.7613    1.0000 </r>
       <r>  -18.7353    1.0000 </r>
       <r>  -18.7225    1.0000 </r>
       <r>  -18.6988    1.0000 </r>
       <r>   -7.8949    1.0000 </r>
       <r>   -7.8928    1.0000 </r>
       <r>   -7.8587    1.0000 </r>
       <r>   -7.8449    1.0000 </r>
       <r>   -7.6992    1.0000 </r>
       <r>   -7.6712    1.0000 </r>
       <r>   -7.6592    1.0000 </r>
       <r>   -7.5540    1.0000 </r>
       <r>   -7.4438    1.0000 </r>
       <r>   -7.3891    1.0000 </r>
       <r>   -7.3567    1.0000 </r>
       <r>   -7.2066    1.0000 </r>
       <r>   -6.4674    1.0000 </r>
       <r>   -6.4107    1.0000 </r>
       <r>   -6.3565    1.0000 </r>
       <r>   -6.3382    1.0000 </r>
       <r>   -6.2580    1.0000 </r>
       <r>   -6.2227    1.0000 </r>
       <r>   -5.0331    1.0000 </r>
       <r>   -5.0150    1.0000 </r>
       <r>   -4.8093    1.0000 </r>
       <r>   -4.7866    1.0000 </r>
       <r>   -4.6637    1.0000 </r>
       <r>   -4.6388    1.0000 </r>
       <r>   -4.4478    1.0000 </r>
       <r>   -4.4272    1.0000 </r>
       <r>   -4.3746    1.0000 </r>
       <r>   -4.3429    1.0000 </r>
       <r>   -4.2644    1.0000 </r>
       <r>   -4.1433    1.0000 </r>
       <r>   -4.1326    1.0000 </r>
       <r>   -3.9565    1.0000 </r>
       <r>   -3.7815    1.0000 </r>
       <r>   -3.7082    1.0000 </r>
       <r>   -3.5925    1.0000 </r>
       <r>   -3.5848    1.0000 </r>
       <r>   -3.5530    1.0000 </r>
       <r>   -3.4318    1.0000 </r>
       <r>   -3.4119    1.0000 </r>
       <r>   -3.3917    1.0000 </r>
       <r>   -3.3300    1.0000 </r>
       <r>   -3.2984    1.0000 </r>
       <r>   -3.2778    1.0000 </r>
       <r>   -3.2280    1.0000 </r>
       <r>   -3.1977    1.0000 </r>
       <r>   -3.1633    1.0000 </r>
       <r>   -2.9411    1.0000 </r>
       <r>   -2.9354    1.0000 </r>
       <r>   -2.6583    1.0000 </r>
       <r>   -2.5237    1.0000 </r>
       <r>   -2.2962    1.0000 </r>
       <r>   -2.2598    1.0000 </r>
       <r>   -2.2239    1.0000 </r>
       <r>   -2.2188    1.0000 </r>
       <r>   -2.1780    1.0000 </r>
       <r>   -2.1294    1.0000 </r>
       <r>   -2.0992    1.0000 </r>
       <r>   -2.0571    1.0000 </r>
       <r>   -2.0196    1.0000 </r>
       <r>   -2.0068    1.0000 </r>
       <r>   -1.9613    1.0000 </r>
       <r>   -1.8323    1.0000 </r>
       <r>   -1.8019    1.0000 </r>
       <r>   -1.7917    1.0000 </r>
       <r>   -1.7321    1.0000 </r>
       <r>   -1.6813    1.0000 </r>
       <r>   -0.8868    1.0000 </r>
       <r>   -0.8627    1.0000 </r>
       <r>   -0.7328    1.0000 </r>
       <r>   -0.7265    1.0000 </r>
       <r>   -0.6293    1.0000 </r>
       <r>   -0.6223    1.0000 </r>
       <r>    2.3161    0.0000 </r>
       <r>    2.3230    0.0000 </r>
       <r>    2.5629    0.0000 </r>
       <r>    2.6478    0.0000 </r>
       <r>    2.9571    0.0000 </r>
       <r>    3.1368    0.0000 </r>
       <r>    4.7378    0.0000 </r>
       <r>    4.8174    0.0000 </r>
       <r>    4.9001    0.0000 </r>
       <r>    4.9058    0.0000 </r>
       <r>    4.9434    0.0000 </r>
       <r>    5.0509    0.0000 </r>
       <r>    5.4341    0.0000 </r>
       <r>    5.5067    0.0000 </r>
       <r>    5.5430    0.0000 </r>
       <r>    5.6232    0.0000 </r>
       <r>    5.6898    0.0000 </r>
       <r>    5.8817    0.0000 </r>
       <r>    6.0317    0.0000 </r>
       <r>    6.2332    0.0000 </r>
       <r>    6.3129    0.0000 </r>
       <r>    6.3827    0.0000 </r>
       <r>    6.5070    0.0000 </r>
       <r>    6.6021    0.0000 </r>
       <r>    6.8256    0.0000 </r>
       <r>    6.8534    0.0000 </r>
       <r>    6.9281    0.0000 </r>
       <r>    7.0875    0.0000 </r>
       <r>    7.1550    0.0000 </r>
       <r>    7.8967    0.0000 </r>
       <r>    7.9852    0.0000 </r>
       <r>    8.1816    0.0000 </r>
       <r>    8.1908    0.0000 </r>
       <r>    9.1357    0.0000 </r>
       <r>    9.4108    0.0000 </r>
       <r>    9.4480    0.0000 </r>
       <r>   10.4653    0.0000 </r>
       <r>   10.5274    0.0000 </r>
       <r>   10.6061    0.0000 </r>
       <r>   10.7731    0.0000 </r>
       <r>   11.4920    0.0000 </r>
       <r>   11.5603    0.0000 </r>
       <r>   11.6171    0.0000 </r>
       <r>   12.2028    0.0000 </r>
       <r>   12.3024    0.0000 </r>
       <r>   12.4326    0.0000 </r>
       <r>   12.5271    0.0000 </r>
       <r>   12.6246    0.0000 </r>
      </set>
      <set comment="kpoint 2">
       <r>  -20.4397    1.0000 </r>
       <r>  -20.2911    1.0000 </r>
       <r>  -20.1576    1.0000 </r>
       <r>  -20.0872    1.0000 </r>
       <r>  -20.0142    1.0000 </r>
       <r>  -19.9461    1.0000 </r>
       <r>  -19.6914    1.0000 </r>
       <r>  -19.6822    1.0000 </r>
       <r>  -19.6705    1.0000 </r>
       <r>  -19.5259    1.0000 </r>
       <r>  -19.5192    1.0000 </r>
       <r>  -19.5117    1.0000 </r>
       <r>  -19.1794    1.0000 </r>
       <r>  -19.1375    1.0000 </r>
       <r>  -19.1297    1.0000 </r>
       <r>  -19.1267    1.0000 </r>
       <r>  -18.9204    1.0000 </r>
       <r>  -18.9096    1.0000 </r>
       <r>  -18.8920    1.0000 </r>
       <r>  -18.8758    1.0000 </r>
       <r>  -18.8694    1.0000 </r>
       <r>  -18.8546    1.0000 </r>
       <r>  -18.8375    1.0000 </r>
       <r>  -18.8226    1.0000 </r>
       <r>   -7.7045    1.0000 </r>
       <r>   -7.6922    1.0000 </r>
       <r>   -7.6841    1.0000 </r>
       <r>   -7.6616    1.0000 </r>
       <r>   -7.4890    1.0000 </r>
       <r>   -7.4768    1.0000 </r>
       <r>   -7.4176    1.0000 </r>
       <r>   -7.3786    1.0000 </r>
       <r>   -6.7868    1.0000 </r>
       <r>   -6.7484    1.0000 </r>
       <r>   -6.7031    1.0000 </r>
       <r>   -6.6262    1.0000 </r>
       <r>   -6.2974    1.0000 </r>
       <r>   -6.2368    1.0000 </r>
       <r>   -6.1180    1.0000 </r>
       <r>   -6.0903    1.0000 </r>
       <r>   -5.9419    1.0000 </r>
       <r>   -5.9376    1.0000 </r>
       <r>   -5.4334    1.0000 </r>
       <r>   -5.2345    1.0000 </r>
       <r>   -5.1850    1.0000 </r>
       <r>   -5.0470    1.0000 </r>
       <r>   -4.9988    1.0000 </r>
       <r>   -4.9835    1.0000 </r>
       <r>   -4.9342    1.0000 </r>
       <r>   -4.8926    1.0000 </r>
       <r>   -4.8143    1.0000 </r>
       <r>   -4.5747    1.0000 </r>
       <r>   -4.4994    1.0000 </r>
       <r>   -4.4291    1.0000 </r>
       <r>   -4.2879    1.0000 </r>
       <r>   -4.2385    1.0000 </r>
       <r>   -4.2236    1.0000 </r>
       <r>   -4.0592    1.0000 </r>
       <r>   -3.9855    1.0000 </r>
       <r>   -3.9415    1.0000 </r>
       <r>   -3.8229    1.0000 </r>
       <r>   -3.7717    1.0000 </r>
       <r>   -3.6187    1.0000 </r>
       <r>   -3.4875    1.0000 </r>
       <r>   -3.4366    1.0000 </r>
       <r>   -3.3489    1.0000 </r>
       <r>   -3.2805    1.0000 </r>
       <r>   -3.2267    1.0000 </r>
       <r>   -3.2156    1.0000 </r>
       <r>   -3.1646    1.0000 </r>
       <r>   -3.0867    1.0000 </r>
       <r>   -3.0322    1.0000 </r>
       <r>   -2.5196    1.0000 </r>
       <r>   -2.4075    1.0000 </r>
       <r>   -2.3748    1.0000 </r>
       <r>   -2.3378    1.0000 </r>
       <r>   -2.3155    1.0000 </r>
       <r>   -2.2930    1.0000 </r>
       <r>   -2.2724    1.0000 </r>
       <r>   -2.2083    1.0000 </r>
       <r>   -2.1949    1.0000 </r>
       <r>   -2.1445    1.0000 </r>
       <r>   -2.0957    1.0000 </r>
       <r>   -2.0420    1.0000 </r>
       <r>   -1.9475    1.0000 </r>
       <r>   -1.8884    1.0000 </r>
       <r>   -1.5140    1.0000 </r>
       <r>   -1.4657    1.0000 </r>
       <r>   -1.3774    1.0000 </r>
       <r>   -1.3571    1.0000 </r>
       <r>   -0.9674    1.0000 </r>
       <r>   -0.9479    1.0000 </r>
       <r>   -0.8862    1.0000 </r>
       <r>   -0.8781    1.0000 </r>
       <r>   -0.8544    1.0000 </r>
       <r>   -0.8324    1.0000 </r>
       <r>    2.9816    0.0000 </r>
       <r>    2.9933    0.0000 </r>
       <r>    3.3528    0.0000 </r>
       <r>    3.4046    0.0000 </r>
       <r>    3.5752    0.0000 </r>
       <r>    3.7012    0.0000 </r>
       <r>    4.5807    0.0000 </r>
       <r>    4.6207    0.0000 </r>
       <r>    4.7988    0.0000 </r>
       <r>    4.9518    0.0000 </r>
       <r>    4.9666    0.0000 </r>
       <r>    5.0874    0.0000 </r>
       <r>    5.1385    0.0000 </r>
       <r>    5.2459    0.0000 </r>
       <r>    5.2843    0.0000 </r>
       <r>    5.3469    0.0000 </r>
       <r>    5.5532    0.0000 </r>
       <r>    5.6553    0.0000 </r>
       <r>    5.7469    0.0000 </r>
       <r>    5.9599    0.0000 </r>
       <r>    5.9919    0.0000 </r>
       <r>    6.0587    0.0000 </r>
       <r>    6.3257    0.0000 </r>
       <r>    6.3583    0.0000 </r>
       <r>    6.8087    0.0000 </r>
       <r>    6.8663    0.0000 </r>
       <r>    7.4250    0.0000 </r>
       <r>    7.6107    0.0000 </r>
       <r>    7.8023    0.0000 </r>
       <r>    7.9081    0.0000 </r>
       <r>    8.0469    0.0000 </r>
       <r>    8.4863    0.0000 </r>
       <r>    8.8168    0.0000 </r>
       <r>    9.7170    0.0000 </r>
       <r>    9.7812    0.0000 </r>
       <r>   10.0371    0.0000 </r>
       <r>   10.2701    0.0000 </r>
       <r>   10.6921    0.0000 </r>
       <r>   10.8019    0.0000 </r>
       <r>   10.8283    0.0000 </r>
       <r>   11.0782    0.0000 </r>
       <r>   11.2720    0.0000 </r>
       <r>   11.3126    0.0000 </r>
       <r>   11.8043    0.0000 </r>
       <r>   11.8723    0.0000 </r>
       <r>   12.1462    0.0000 </r>
       <r>   12.3842    0.0000 </r>
       <r>   12.4556    0.0000 </r>
      </set>
      <set comment="kpoint 3">
       <r>  -20.4399    1.0000 </r>
       <r>  -20.2909    1.0000 </r>
       <r>  -20.1575    1.0000 </r>
       <r>  -20.0874    1.0000 </r>
       <r>  -20.0143    1.0000 </r>
       <r>  -19.9460    1.0000 </r>
       <r>  -19.6913    1.0000 </r>
       <r>  -19.6821    1.0000 </r>
       <r>  -19.6706    1.0000 </r>
       <r>  -19.5259    1.0000 </r>
       <r>  -19.5193    1.0000 </r>
       <r>  -19.5117    1.0000 </r>
       <r>  -19.1796    1.0000 </r>
       <r>  -19.1375    1.0000 </r>
       <r>  -19.1297    1.0000 </r>
       <r>  -19.1267    1.0000 </r>
       <r>  -18.9203    1.0000 </r>
       <r>  -18.9094    1.0000 </r>
       <r>  -18.8921    1.0000 </r>
       <r>  -18.8757    1.0000 </r>
       <r>  -18.8698    1.0000 </r>
       <r>  -18.8544    1.0000 </r>
       <r>  -18.8375    1.0000 </r>
       <r>  -18.8227    1.0000 </r>
       <r>   -7.7055    1.0000 </r>
       <r>   -7.6902    1.0000 </r>
       <r>   -7.6848    1.0000 </r>
       <r>   -7.6619    1.0000 </r>
       <r>   -7.4881    1.0000 </r>
       <r>   -7.4781    1.0000 </r>
       <r>   -7.4164    1.0000 </r>
       <r>   -7.3806    1.0000 </r>
       <r>   -6.7865    1.0000 </r>
       <r>   -6.7502    1.0000 </r>
       <r>   -6.7001    1.0000 </r>
       <r>   -6.6240    1.0000 </r>
       <r>   -6.2994    1.0000 </r>
       <r>   -6.2362    1.0000 </r>
       <r>   -6.1190    1.0000 </r>
       <r>   -6.0918    1.0000 </r>
       <r>   -5.9417    1.0000 </r>
       <r>   -5.9372    1.0000 </r>
       <r>   -5.4325    1.0000 </r>
       <r>   -5.2292    1.0000 </r>
       <r>   -5.1876    1.0000 </r>
       <r>   -5.0357    1.0000 </r>
       <r>   -5.0073    1.0000 </r>
       <r>   -4.9707    1.0000 </r>
       <r>   -4.9546    1.0000 </r>
       <r>   -4.8808    1.0000 </r>
       <r>   -4.8254    1.0000 </r>
       <r>   -4.5788    1.0000 </r>
       <r>   -4.4999    1.0000 </r>
       <r>   -4.4304    1.0000 </r>
       <r>   -4.2792    1.0000 </r>
       <r>   -4.2430    1.0000 </r>
       <r>   -4.2226    1.0000 </r>
       <r>   -4.0611    1.0000 </r>
       <r>   -3.9834    1.0000 </r>
       <r>   -3.9437    1.0000 </r>
       <r>   -3.8219    1.0000 </r>
       <r>   -3.7719    1.0000 </r>
       <r>   -3.6144    1.0000 </r>
       <r>   -3.4884    1.0000 </r>
       <r>   -3.4356    1.0000 </r>
       <r>   -3.3445    1.0000 </r>
       <r>   -3.2798    1.0000 </r>
       <r>   -3.2360    1.0000 </r>
       <r>   -3.2147    1.0000 </r>
       <r>   -3.1605    1.0000 </r>
       <r>   -3.0894    1.0000 </r>
       <r>   -3.0284    1.0000 </r>
       <r>   -2.5201    1.0000 </r>
       <r>   -2.4169    1.0000 </r>
       <r>   -2.3687    1.0000 </r>
       <r>   -2.3379    1.0000 </r>
       <r>   -2.3215    1.0000 </r>
       <r>   -2.2908    1.0000 </r>
       <r>   -2.2664    1.0000 </r>
       <r>   -2.2114    1.0000 </r>
       <r>   -2.1901    1.0000 </r>
       <r>   -2.1459    1.0000 </r>
       <r>   -2.0903    1.0000 </r>
       <r>   -2.0420    1.0000 </r>
       <r>   -1.9472    1.0000 </r>
       <r>   -1.8946    1.0000 </r>
       <r>   -1.5101    1.0000 </r>
       <r>   -1.4647    1.0000 </r>
       <r>   -1.3826    1.0000 </r>
       <r>   -1.3585    1.0000 </r>
       <r>   -0.9680    1.0000 </r>
       <r>   -0.9450    1.0000 </r>
       <r>   -0.8843    1.0000 </r>
       <r>   -0.8745    1.0000 </r>
       <r>   -0.8502    1.0000 </r>
       <r>   -0.8453    1.0000 </r>
       <r>    2.9843    0.0000 </r>
       <r>    2.9881    0.0000 </r>
       <r>    3.3574    0.0000 </r>
       <r>    3.4042    0.0000 </r>
       <r>    3.5747    0.0000 </r>
       <r>    3.7069    0.0000 </r>
       <r>    4.5842    0.0000 </r>
       <r>    4.6191    0.0000 </r>
       <r>    4.8234    0.0000 </r>
       <r>    4.9459    0.0000 </r>
       <r>    4.9681    0.0000 </r>
       <r>    5.0562    0.0000 </r>
       <r>    5.1355    0.0000 </r>
       <r>    5.2497    0.0000 </r>
       <r>    5.2905    0.0000 </r>
       <r>    5.3482    0.0000 </r>
       <r>    5.5421    0.0000 </r>
       <r>    5.6286    0.0000 </r>
       <r>    5.7841    0.0000 </r>
       <r>    5.9667    0.0000 </r>
       <r>    5.9932    0.0000 </r>
       <r>    6.0504    0.0000 </r>
       <r>    6.3285    0.0000 </r>
       <r>    6.3513    0.0000 </r>
       <r>    6.8203    0.0000 </r>
       <r>    6.8652    0.0000 </r>
       <r>    7.3439    0.0000 </r>
       <r>    7.6726    0.0000 </r>
       <r>    7.8594    0.0000 </r>
       <r>    7.9078    0.0000 </r>
       <r>    7.9934    0.0000 </r>
       <r>    8.4864    0.0000 </r>
       <r>    8.8217    0.0000 </r>
       <r>    9.7135    0.0000 </r>
       <r>    9.7828    0.0000 </r>
       <r>   10.0576    0.0000 </r>
       <r>   10.2590    0.0000 </r>
       <r>   10.7002    0.0000 </r>
       <r>   10.7892    0.0000 </r>
       <r>   10.8273    0.0000 </r>
       <r>   11.0747    0.0000 </r>
       <r>   11.2770    0.0000 </r>
       <r>   11.3078    0.0000 </r>
       <r>   11.8084    0.0000 </r>
       <r>   11.8694    0.0000 </r>
       <r>   12.1426    0.0000 </r>
       <r>   12.3892    0.0000 </r>
       <r>   12.4430    0.0000 </r>
      </set>
      <set comment="kpoint 4">
       <r>  -20.5952    1.0000 </r>
       <r>  -20.3366    1.0000 </r>
       <r>  -20.2766    1.0000 </r>
       <r>  -20.2236    1.0000 </r>
       <r>  -20.0193    1.0000 </r>
       <r>  -19.9620    1.0000 </r>
       <r>  -19.8993    1.0000 </r>
       <r>  -19.6984    1.0000 </r>
       <r>  -19.6900    1.0000 </r>
       <r>  -19.6780    1.0000 </r>
       <r>  -19.6737    1.0000 </r>
       <r>  -19.6576    1.0000 </r>
       <r>  -18.9661    1.0000 </r>
       <r>  -18.9145    1.0000 </r>
       <r>  -18.9074    1.0000 </r>
       <r>  -18.9006    1.0000 </r>
       <r>  -18.8714    1.0000 </r>
       <r>  -18.8666    1.0000 </r>
       <r>  -18.8379    1.0000 </r>
       <r>  -18.8122    1.0000 </r>
       <r>  -18.7613    1.0000 </r>
       <r>  -18.7352    1.0000 </r>
       <r>  -18.7225    1.0000 </r>
       <r>  -18.6987    1.0000 </r>
       <r>   -7.8961    1.0000 </r>
       <r>   -7.8924    1.0000 </r>
       <r>   -7.8582    1.0000 </r>
       <r>   -7.8449    1.0000 </r>
       <r>   -7.6995    1.0000 </r>
       <r>   -7.6708    1.0000 </r>
       <r>   -7.6592    1.0000 </r>
       <r>   -7.5539    1.0000 </r>
       <r>   -7.4447    1.0000 </r>
       <r>   -7.3889    1.0000 </r>
       <r>   -7.3570    1.0000 </r>
       <r>   -7.2046    1.0000 </r>
       <r>   -6.4675    1.0000 </r>
       <r>   -6.4112    1.0000 </r>
       <r>   -6.3563    1.0000 </r>
       <r>   -6.3399    1.0000 </r>
       <r>   -6.2571    1.0000 </r>
       <r>   -6.2226    1.0000 </r>
       <r>   -5.0316    1.0000 </r>
       <r>   -5.0099    1.0000 </r>
       <r>   -4.8153    1.0000 </r>
       <r>   -4.7887    1.0000 </r>
       <r>   -4.6655    1.0000 </r>
       <r>   -4.6378    1.0000 </r>
       <r>   -4.4464    1.0000 </r>
       <r>   -4.4207    1.0000 </r>
       <r>   -4.3728    1.0000 </r>
       <r>   -4.3453    1.0000 </r>
       <r>   -4.2699    1.0000 </r>
       <r>   -4.1418    1.0000 </r>
       <r>   -4.1366    1.0000 </r>
       <r>   -3.9567    1.0000 </r>
       <r>   -3.7795    1.0000 </r>
       <r>   -3.7096    1.0000 </r>
       <r>   -3.5936    1.0000 </r>
       <r>   -3.5839    1.0000 </r>
       <r>   -3.5521    1.0000 </r>
       <r>   -3.4351    1.0000 </r>
       <r>   -3.4074    1.0000 </r>
       <r>   -3.3933    1.0000 </r>
       <r>   -3.3265    1.0000 </r>
       <r>   -3.3000    1.0000 </r>
       <r>   -3.2771    1.0000 </r>
       <r>   -3.2363    1.0000 </r>
       <r>   -3.1900    1.0000 </r>
       <r>   -3.1620    1.0000 </r>
       <r>   -2.9422    1.0000 </r>
       <r>   -2.9342    1.0000 </r>
       <r>   -2.6593    1.0000 </r>
       <r>   -2.5268    1.0000 </r>
       <r>   -2.2988    1.0000 </r>
       <r>   -2.2507    1.0000 </r>
       <r>   -2.2159    1.0000 </r>
       <r>   -2.1876    1.0000 </r>
       <r>   -2.1744    1.0000 </r>
       <r>   -2.1655    1.0000 </r>
       <r>   -2.0907    1.0000 </r>
       <r>   -2.0724    1.0000 </r>
       <r>   -2.0314    1.0000 </r>
       <r>   -2.0046    1.0000 </r>
       <r>   -1.9516    1.0000 </r>
       <r>   -1.8246    1.0000 </r>
       <r>   -1.8010    1.0000 </r>
       <r>   -1.7961    1.0000 </r>
       <r>   -1.7408    1.0000 </r>
       <r>   -1.6806    1.0000 </r>
       <r>   -0.8852    1.0000 </r>
       <r>   -0.8630    1.0000 </r>
       <r>   -0.7345    1.0000 </r>
       <r>   -0.7283    1.0000 </r>
       <r>   -0.6286    1.0000 </r>
       <r>   -0.6229    1.0000 </r>
       <r>    2.3154    0.0000 </r>
       <r>    2.3188    0.0000 </r>
       <r>    2.5703    0.0000 </r>
       <r>    2.6509    0.0000 </r>
       <r>    2.9561    0.0000 </r>
       <r>    3.1376    0.0000 </r>
       <r>    4.7372    0.0000 </r>
       <r>    4.8246    0.0000 </r>
       <r>    4.8862    0.0000 </r>
       <r>    4.9174    0.0000 </r>
       <r>    4.9378    0.0000 </r>
       <r>    5.0534    0.0000 </r>
       <r>    5.4364    0.0000 </r>
       <r>    5.4999    0.0000 </r>
       <r>    5.5496    0.0000 </r>
       <r>    5.5875    0.0000 </r>
       <r>    5.7406    0.0000 </r>
       <r>    5.8765    0.0000 </r>
       <r>    6.0284    0.0000 </r>
       <r>    6.2273    0.0000 </r>
       <r>    6.3245    0.0000 </r>
       <r>    6.3640    0.0000 </r>
       <r>    6.5005    0.0000 </r>
       <r>    6.6083    0.0000 </r>
       <r>    6.8285    0.0000 </r>
       <r>    6.8557    0.0000 </r>
       <r>    6.8888    0.0000 </r>
       <r>    7.0871    0.0000 </r>
       <r>    7.1842    0.0000 </r>
       <r>    7.8994    0.0000 </r>
       <r>    7.9992    0.0000 </r>
       <r>    8.1730    0.0000 </r>
       <r>    8.1841    0.0000 </r>
       <r>    9.1483    0.0000 </r>
       <r>    9.4045    0.0000 </r>
       <r>    9.4491    0.0000 </r>
       <r>   10.4668    0.0000 </r>
       <r>   10.5268    0.0000 </r>
       <r>   10.6039    0.0000 </r>
       <r>   10.7705    0.0000 </r>
       <r>   11.4924    0.0000 </r>
       <r>   11.5599    0.0000 </r>
       <r>   11.6163    0.0000 </r>
       <r>   12.2034    0.0000 </r>
       <r>   12.2885    0.0000 </r>
       <r>   12.4489    0.0000 </r>
       <r>   12.5434    0.0000 </r>
       <r>   12.6024    0.0000 </r>
      </set>
      <set comment="kpoint 5">
       <r>  -20.4672    1.0000 </r>
       <r>  -20.3384    1.0000 </r>
       <r>  -20.1931    1.0000 </r>
       <r>  -20.0693    1.0000 </r>
       <r>  -20.0638    1.0000 </r>
       <r>  -19.9412    1.0000 </r>
       <r>  -19.6891    1.0000 </r>
       <r>  -19.6801    1.0000 </r>
       <r>  -19.6754    1.0000 </r>
       <r>  -19.5447    1.0000 </r>
       <r>  -19.5241    1.0000 </r>
       <r>  -19.5053    1.0000 </r>
       <r>  -19.2368    1.0000 </r>
       <r>  -19.2155    1.0000 </r>
       <r>  -19.1736    1.0000 </r>
       <r>  -19.1622    1.0000 </r>
       <r>  -18.9295    1.0000 </r>
       <r>  -18.9193    1.0000 </r>
       <r>  -18.8829    1.0000 </r>
       <r>  -18.8711    1.0000 </r>
       <r>  -18.7504    1.0000 </r>
       <r>  -18.7347    1.0000 </r>
       <r>  -18.7247    1.0000 </r>
       <r>  -18.7099    1.0000 </r>
       <r>   -7.8659    1.0000 </r>
       <r>   -7.8636    1.0000 </r>
       <r>   -7.8418    1.0000 </r>
       <r>   -7.8413    1.0000 </r>
       <r>   -7.5049    1.0000 </r>
       <r>   -7.4919    1.0000 </r>
       <r>   -7.4157    1.0000 </r>
       <r>   -7.4023    1.0000 </r>
       <r>   -6.7195    1.0000 </r>
       <r>   -6.6204    1.0000 </r>
       <r>   -6.5628    1.0000 </r>
       <r>   -6.4470    1.0000 </r>
       <r>   -6.3680    1.0000 </r>
       <r>   -6.3403    1.0000 </r>
       <r>   -6.1033    1.0000 </r>
       <r>   -6.0144    1.0000 </r>
       <r>   -5.9711    1.0000 </r>
       <r>   -5.9298    1.0000 </r>
       <r>   -5.5110    1.0000 </r>
       <r>   -5.3953    1.0000 </r>
       <r>   -5.3770    1.0000 </r>
       <r>   -5.1534    1.0000 </r>
       <r>   -5.0849    1.0000 </r>
       <r>   -5.0455    1.0000 </r>
       <r>   -4.8501    1.0000 </r>
       <r>   -4.7719    1.0000 </r>
       <r>   -4.7528    1.0000 </r>
       <r>   -4.5988    1.0000 </r>
       <r>   -4.4931    1.0000 </r>
       <r>   -4.4016    1.0000 </r>
       <r>   -4.3223    1.0000 </r>
       <r>   -4.2699    1.0000 </r>
       <r>   -4.2364    1.0000 </r>
       <r>   -4.0719    1.0000 </r>
       <r>   -3.9915    1.0000 </r>
       <r>   -3.9275    1.0000 </r>
       <r>   -3.7076    1.0000 </r>
       <r>   -3.5751    1.0000 </r>
       <r>   -3.5184    1.0000 </r>
       <r>   -3.4050    1.0000 </r>
       <r>   -3.3722    1.0000 </r>
       <r>   -3.2884    1.0000 </r>
       <r>   -3.2125    1.0000 </r>
       <r>   -3.2022    1.0000 </r>
       <r>   -3.1878    1.0000 </r>
       <r>   -3.1684    1.0000 </r>
       <r>   -3.0665    1.0000 </r>
       <r>   -3.0052    1.0000 </r>
       <r>   -2.5868    1.0000 </r>
       <r>   -2.4917    1.0000 </r>
       <r>   -2.3701    1.0000 </r>
       <r>   -2.3440    1.0000 </r>
       <r>   -2.3049    1.0000 </r>
       <r>   -2.1926    1.0000 </r>
       <r>   -2.1289    1.0000 </r>
       <r>   -2.0655    1.0000 </r>
       <r>   -2.0424    1.0000 </r>
       <r>   -1.9343    1.0000 </r>
       <r>   -1.9079    1.0000 </r>
       <r>   -1.8376    1.0000 </r>
       <r>   -1.8150    1.0000 </r>
       <r>   -1.7608    1.0000 </r>
       <r>   -1.6225    1.0000 </r>
       <r>   -1.5983    1.0000 </r>
       <r>   -1.5688    1.0000 </r>
       <r>   -1.4997    1.0000 </r>
       <r>   -1.1044    1.0000 </r>
       <r>   -1.0933    1.0000 </r>
       <r>   -0.9740    1.0000 </r>
       <r>   -0.9691    1.0000 </r>
       <r>   -0.7287    1.0000 </r>
       <r>   -0.7245    1.0000 </r>
       <r>    2.5593    0.0000 </r>
       <r>    2.5813    0.0000 </r>
       <r>    3.1400    0.0000 </r>
       <r>    3.1670    0.0000 </r>
       <r>    3.7387    0.0000 </r>
       <r>    3.8659    0.0000 </r>
       <r>    4.1586    0.0000 </r>
       <r>    4.1896    0.0000 </r>
       <r>    4.7392    0.0000 </r>
       <r>    4.7843    0.0000 </r>
       <r>    4.8834    0.0000 </r>
       <r>    5.0119    0.0000 </r>
       <r>    5.2243    0.0000 </r>
       <r>    5.3591    0.0000 </r>
       <r>    5.6176    0.0000 </r>
       <r>    5.6415    0.0000 </r>
       <r>    5.7706    0.0000 </r>
       <r>    5.7988    0.0000 </r>
       <r>    5.9251    0.0000 </r>
       <r>    5.9404    0.0000 </r>
       <r>    6.1434    0.0000 </r>
       <r>    6.2287    0.0000 </r>
       <r>    6.4914    0.0000 </r>
       <r>    6.4943    0.0000 </r>
       <r>    6.8770    0.0000 </r>
       <r>    6.9016    0.0000 </r>
       <r>    7.5108    0.0000 </r>
       <r>    7.6168    0.0000 </r>
       <r>    7.8254    0.0000 </r>
       <r>    8.0019    0.0000 </r>
       <r>    8.0507    0.0000 </r>
       <r>    8.5519    0.0000 </r>
       <r>    8.7587    0.0000 </r>
       <r>    9.4729    0.0000 </r>
       <r>    9.7642    0.0000 </r>
       <r>    9.9059    0.0000 </r>
       <r>   10.2860    0.0000 </r>
       <r>   10.6674    0.0000 </r>
       <r>   10.8365    0.0000 </r>
       <r>   10.9900    0.0000 </r>
       <r>   11.0494    0.0000 </r>
       <r>   11.2059    0.0000 </r>
       <r>   11.2284    0.0000 </r>
       <r>   11.3971    0.0000 </r>
       <r>   11.5042    0.0000 </r>
       <r>   11.9565    0.0000 </r>
       <r>   12.6644    0.0000 </r>
       <r>   12.8771    0.0000 </r>
      </set>
      <set comment="kpoint 6">
       <r>  -20.2910    1.0000 </r>
       <r>  -20.1490    1.0000 </r>
       <r>  -20.1300    1.0000 </r>
       <r>  -19.9955    1.0000 </r>
       <r>  -19.9464    1.0000 </r>
       <r>  -19.7538    1.0000 </r>
       <r>  -19.7354    1.0000 </r>
       <r>  -19.5921    1.0000 </r>
       <r>  -19.5466    1.0000 </r>
       <r>  -19.5408    1.0000 </r>
       <r>  -19.4469    1.0000 </r>
       <r>  -19.4341    1.0000 </r>
       <r>  -19.3359    1.0000 </r>
       <r>  -19.2594    1.0000 </r>
       <r>  -19.1642    1.0000 </r>
       <r>  -19.1596    1.0000 </r>
       <r>  -19.1117    1.0000 </r>
       <r>  -19.1116    1.0000 </r>
       <r>  -19.0605    1.0000 </r>
       <r>  -19.0465    1.0000 </r>
       <r>  -18.9089    1.0000 </r>
       <r>  -18.8977    1.0000 </r>
       <r>  -18.8916    1.0000 </r>
       <r>  -18.8806    1.0000 </r>
       <r>   -7.5397    1.0000 </r>
       <r>   -7.5095    1.0000 </r>
       <r>   -7.5054    1.0000 </r>
       <r>   -7.4719    1.0000 </r>
       <r>   -6.8905    1.0000 </r>
       <r>   -6.8623    1.0000 </r>
       <r>   -6.7907    1.0000 </r>
       <r>   -6.7361    1.0000 </r>
       <r>   -6.7117    1.0000 </r>
       <r>   -6.6193    1.0000 </r>
       <r>   -6.5277    1.0000 </r>
       <r>   -6.4041    1.0000 </r>
       <r>   -6.0909    1.0000 </r>
       <r>   -6.0380    1.0000 </r>
       <r>   -5.9559    1.0000 </r>
       <r>   -5.8907    1.0000 </r>
       <r>   -5.7517    1.0000 </r>
       <r>   -5.6542    1.0000 </r>
       <r>   -5.5917    1.0000 </r>
       <r>   -5.3654    1.0000 </r>
       <r>   -5.2793    1.0000 </r>
       <r>   -5.1725    1.0000 </r>
       <r>   -5.1180    1.0000 </r>
       <r>   -5.1033    1.0000 </r>
       <r>   -5.0833    1.0000 </r>
       <r>   -5.0186    1.0000 </r>
       <r>   -4.9748    1.0000 </r>
       <r>   -4.8034    1.0000 </r>
       <r>   -4.7761    1.0000 </r>
       <r>   -4.6995    1.0000 </r>
       <r>   -4.6876    1.0000 </r>
       <r>   -4.6232    1.0000 </r>
       <r>   -4.5031    1.0000 </r>
       <r>   -4.4194    1.0000 </r>
       <r>   -4.3790    1.0000 </r>
       <r>   -4.3324    1.0000 </r>
       <r>   -4.2973    1.0000 </r>
       <r>   -4.2273    1.0000 </r>
       <r>   -4.0447    1.0000 </r>
       <r>   -3.9253    1.0000 </r>
       <r>   -3.8921    1.0000 </r>
       <r>   -3.8660    1.0000 </r>
       <r>   -3.7124    1.0000 </r>
       <r>   -3.5875    1.0000 </r>
       <r>   -3.2465    1.0000 </r>
       <r>   -3.1985    1.0000 </r>
       <r>   -3.1556    1.0000 </r>
       <r>   -3.1271    1.0000 </r>
       <r>   -2.4408    1.0000 </r>
       <r>   -2.4193    1.0000 </r>
       <r>   -2.3596    1.0000 </r>
       <r>   -2.3333    1.0000 </r>
       <r>   -2.3252    1.0000 </r>
       <r>   -2.2937    1.0000 </r>
       <r>   -2.1699    1.0000 </r>
       <r>   -2.1478    1.0000 </r>
       <r>   -1.7983    1.0000 </r>
       <r>   -1.7127    1.0000 </r>
       <r>   -1.6632    1.0000 </r>
       <r>   -1.6273    1.0000 </r>
       <r>   -1.6115    1.0000 </r>
       <r>   -1.5480    1.0000 </r>
       <r>   -1.5185    1.0000 </r>
       <r>   -1.4769    1.0000 </r>
       <r>   -1.4081    1.0000 </r>
       <r>   -1.3229    1.0000 </r>
       <r>   -1.1463    1.0000 </r>
       <r>   -1.0987    1.0000 </r>
       <r>   -1.0778    1.0000 </r>
       <r>   -1.0681    1.0000 </r>
       <r>   -0.9274    1.0000 </r>
       <r>   -0.9110    1.0000 </r>
       <r>    3.4412    0.0000 </r>
       <r>    3.5486    0.0000 </r>
       <r>    3.7268    0.0000 </r>
       <r>    3.8646    0.0000 </r>
       <r>    3.8885    0.0000 </r>
       <r>    4.0060    0.0000 </r>
       <r>    4.6112    0.0000 </r>
       <r>    4.6414    0.0000 </r>
       <r>    4.7089    0.0000 </r>
       <r>    4.7660    0.0000 </r>
       <r>    4.8618    0.0000 </r>
       <r>    4.8681    0.0000 </r>
       <r>    5.0654    0.0000 </r>
       <r>    5.1135    0.0000 </r>
       <r>    5.2136    0.0000 </r>
       <r>    5.2654    0.0000 </r>
       <r>    5.3262    0.0000 </r>
       <r>    5.4528    0.0000 </r>
       <r>    5.4772    0.0000 </r>
       <r>    5.5601    0.0000 </r>
       <r>    5.8154    0.0000 </r>
       <r>    5.9341    0.0000 </r>
       <r>    6.0055    0.0000 </r>
       <r>    6.0557    0.0000 </r>
       <r>    7.2345    0.0000 </r>
       <r>    7.4328    0.0000 </r>
       <r>    7.4577    0.0000 </r>
       <r>    7.8390    0.0000 </r>
       <r>    8.6900    0.0000 </r>
       <r>    8.7446    0.0000 </r>
       <r>    8.9480    0.0000 </r>
       <r>    9.3151    0.0000 </r>
       <r>    9.5177    0.0000 </r>
       <r>    9.5447    0.0000 </r>
       <r>    9.6636    0.0000 </r>
       <r>   10.1266    0.0000 </r>
       <r>   10.1579    0.0000 </r>
       <r>   10.3650    0.0000 </r>
       <r>   10.5544    0.0000 </r>
       <r>   10.8163    0.0000 </r>
       <r>   10.9531    0.0000 </r>
       <r>   10.9706    0.0000 </r>
       <r>   11.0754    0.0000 </r>
       <r>   11.2165    0.0000 </r>
       <r>   11.2934    0.0000 </r>
       <r>   11.6270    0.0000 </r>
       <r>   11.9798    0.0000 </r>
       <r>   12.1086    0.0000 </r>
      </set>
      <set comment="kpoint 7">
       <r>  -20.2911    1.0000 </r>
       <r>  -20.1492    1.0000 </r>
       <r>  -20.1299    1.0000 </r>
       <r>  -19.9953    1.0000 </r>
       <r>  -19.9462    1.0000 </r>
       <r>  -19.7538    1.0000 </r>
       <r>  -19.7354    1.0000 </r>
       <r>  -19.5919    1.0000 </r>
       <r>  -19.5466    1.0000 </r>
       <r>  -19.5408    1.0000 </r>
       <r>  -19.4467    1.0000 </r>
       <r>  -19.4342    1.0000 </r>
       <r>  -19.3362    1.0000 </r>
       <r>  -19.2593    1.0000 </r>
       <r>  -19.1644    1.0000 </r>
       <r>  -19.1594    1.0000 </r>
       <r>  -19.1117    1.0000 </r>
       <r>  -19.1116    1.0000 </r>
       <r>  -19.0605    1.0000 </r>
       <r>  -19.0465    1.0000 </r>
       <r>  -18.9089    1.0000 </r>
       <r>  -18.8976    1.0000 </r>
       <r>  -18.8918    1.0000 </r>
       <r>  -18.8804    1.0000 </r>
       <r>   -7.5392    1.0000 </r>
       <r>   -7.5102    1.0000 </r>
       <r>   -7.5050    1.0000 </r>
       <r>   -7.4727    1.0000 </r>
       <r>   -6.8908    1.0000 </r>
       <r>   -6.8618    1.0000 </r>
       <r>   -6.7904    1.0000 </r>
       <r>   -6.7357    1.0000 </r>
       <r>   -6.7107    1.0000 </r>
       <r>   -6.6198    1.0000 </r>
       <r>   -6.5284    1.0000 </r>
       <r>   -6.4019    1.0000 </r>
       <r>   -6.0925    1.0000 </r>
       <r>   -6.0403    1.0000 </r>
       <r>   -5.9560    1.0000 </r>
       <r>   -5.8896    1.0000 </r>
       <r>   -5.7524    1.0000 </r>
       <r>   -5.6506    1.0000 </r>
       <r>   -5.5939    1.0000 </r>
       <r>   -5.3624    1.0000 </r>
       <r>   -5.2818    1.0000 </r>
       <r>   -5.1758    1.0000 </r>
       <r>   -5.1361    1.0000 </r>
       <r>   -5.0896    1.0000 </r>
       <r>   -5.0568    1.0000 </r>
       <r>   -5.0388    1.0000 </r>
       <r>   -4.9738    1.0000 </r>
       <r>   -4.8047    1.0000 </r>
       <r>   -4.7761    1.0000 </r>
       <r>   -4.7012    1.0000 </r>
       <r>   -4.6841    1.0000 </r>
       <r>   -4.6236    1.0000 </r>
       <r>   -4.5063    1.0000 </r>
       <r>   -4.4190    1.0000 </r>
       <r>   -4.3787    1.0000 </r>
       <r>   -4.3182    1.0000 </r>
       <r>   -4.3023    1.0000 </r>
       <r>   -4.2376    1.0000 </r>
       <r>   -4.0406    1.0000 </r>
       <r>   -3.9243    1.0000 </r>
       <r>   -3.8993    1.0000 </r>
       <r>   -3.8596    1.0000 </r>
       <r>   -3.7146    1.0000 </r>
       <r>   -3.5882    1.0000 </r>
       <r>   -3.2451    1.0000 </r>
       <r>   -3.1992    1.0000 </r>
       <r>   -3.1524    1.0000 </r>
       <r>   -3.1297    1.0000 </r>
       <r>   -2.4439    1.0000 </r>
       <r>   -2.4170    1.0000 </r>
       <r>   -2.3589    1.0000 </r>
       <r>   -2.3314    1.0000 </r>
       <r>   -2.3217    1.0000 </r>
       <r>   -2.2909    1.0000 </r>
       <r>   -2.1691    1.0000 </r>
       <r>   -2.1494    1.0000 </r>
       <r>   -1.8014    1.0000 </r>
       <r>   -1.7147    1.0000 </r>
       <r>   -1.6663    1.0000 </r>
       <r>   -1.6243    1.0000 </r>
       <r>   -1.6126    1.0000 </r>
       <r>   -1.5492    1.0000 </r>
       <r>   -1.5169    1.0000 </r>
       <r>   -1.4775    1.0000 </r>
       <r>   -1.4104    1.0000 </r>
       <r>   -1.3211    1.0000 </r>
       <r>   -1.1476    1.0000 </r>
       <r>   -1.0979    1.0000 </r>
       <r>   -1.0766    1.0000 </r>
       <r>   -1.0651    1.0000 </r>
       <r>   -0.9290    1.0000 </r>
       <r>   -0.9145    1.0000 </r>
       <r>    3.4398    0.0000 </r>
       <r>    3.5488    0.0000 </r>
       <r>    3.7297    0.0000 </r>
       <r>    3.8724    0.0000 </r>
       <r>    3.8879    0.0000 </r>
       <r>    4.0051    0.0000 </r>
       <r>    4.6098    0.0000 </r>
       <r>    4.6601    0.0000 </r>
       <r>    4.7150    0.0000 </r>
       <r>    4.7588    0.0000 </r>
       <r>    4.8539    0.0000 </r>
       <r>    4.8619    0.0000 </r>
       <r>    5.0648    0.0000 </r>
       <r>    5.1045    0.0000 </r>
       <r>    5.2250    0.0000 </r>
       <r>    5.2696    0.0000 </r>
       <r>    5.3172    0.0000 </r>
       <r>    5.4408    0.0000 </r>
       <r>    5.4809    0.0000 </r>
       <r>    5.5606    0.0000 </r>
       <r>    5.8059    0.0000 </r>
       <r>    5.9289    0.0000 </r>
       <r>    6.0148    0.0000 </r>
       <r>    6.0654    0.0000 </r>
       <r>    7.2342    0.0000 </r>
       <r>    7.4175    0.0000 </r>
       <r>    7.4612    0.0000 </r>
       <r>    7.8421    0.0000 </r>
       <r>    8.6921    0.0000 </r>
       <r>    8.7487    0.0000 </r>
       <r>    8.9483    0.0000 </r>
       <r>    9.3198    0.0000 </r>
       <r>    9.5186    0.0000 </r>
       <r>    9.5376    0.0000 </r>
       <r>    9.6659    0.0000 </r>
       <r>   10.1410    0.0000 </r>
       <r>   10.1478    0.0000 </r>
       <r>   10.3666    0.0000 </r>
       <r>   10.5609    0.0000 </r>
       <r>   10.8017    0.0000 </r>
       <r>   10.9401    0.0000 </r>
       <r>   10.9771    0.0000 </r>
       <r>   11.0796    0.0000 </r>
       <r>   11.2148    0.0000 </r>
       <r>   11.3062    0.0000 </r>
       <r>   11.6232    0.0000 </r>
       <r>   11.9803    0.0000 </r>
       <r>   12.1035    0.0000 </r>
      </set>
      <set comment="kpoint 8">
       <r>  -20.4673    1.0000 </r>
       <r>  -20.3385    1.0000 </r>
       <r>  -20.1931    1.0000 </r>
       <r>  -20.0693    1.0000 </r>
       <r>  -20.0637    1.0000 </r>
       <r>  -19.9411    1.0000 </r>
       <r>  -19.6892    1.0000 </r>
       <r>  -19.6802    1.0000 </r>
       <r>  -19.6752    1.0000 </r>
       <r>  -19.5446    1.0000 </r>
       <r>  -19.5241    1.0000 </r>
       <r>  -19.5054    1.0000 </r>
       <r>  -19.2368    1.0000 </r>
       <r>  -19.2154    1.0000 </r>
       <r>  -19.1736    1.0000 </r>
       <r>  -19.1622    1.0000 </r>
       <r>  -18.9295    1.0000 </r>
       <r>  -18.9194    1.0000 </r>
       <r>  -18.8828    1.0000 </r>
       <r>  -18.8711    1.0000 </r>
       <r>  -18.7504    1.0000 </r>
       <r>  -18.7347    1.0000 </r>
       <r>  -18.7246    1.0000 </r>
       <r>  -18.7098    1.0000 </r>
       <r>   -7.8665    1.0000 </r>
       <r>   -7.8644    1.0000 </r>
       <r>   -7.8416    1.0000 </r>
       <r>   -7.8406    1.0000 </r>
       <r>   -7.5051    1.0000 </r>
       <r>   -7.4923    1.0000 </r>
       <r>   -7.4152    1.0000 </r>
       <r>   -7.4014    1.0000 </r>
       <r>   -6.7192    1.0000 </r>
       <r>   -6.6205    1.0000 </r>
       <r>   -6.5632    1.0000 </r>
       <r>   -6.4452    1.0000 </r>
       <r>   -6.3688    1.0000 </r>
       <r>   -6.3421    1.0000 </r>
       <r>   -6.1028    1.0000 </r>
       <r>   -6.0144    1.0000 </r>
       <r>   -5.9713    1.0000 </r>
       <r>   -5.9298    1.0000 </r>
       <r>   -5.5109    1.0000 </r>
       <r>   -5.3933    1.0000 </r>
       <r>   -5.3789    1.0000 </r>
       <r>   -5.1529    1.0000 </r>
       <r>   -5.0863    1.0000 </r>
       <r>   -5.0455    1.0000 </r>
       <r>   -4.8521    1.0000 </r>
       <r>   -4.7696    1.0000 </r>
       <r>   -4.7524    1.0000 </r>
       <r>   -4.5963    1.0000 </r>
       <r>   -4.4930    1.0000 </r>
       <r>   -4.4008    1.0000 </r>
       <r>   -4.3198    1.0000 </r>
       <r>   -4.2725    1.0000 </r>
       <r>   -4.2387    1.0000 </r>
       <r>   -4.0727    1.0000 </r>
       <r>   -3.9905    1.0000 </r>
       <r>   -3.9280    1.0000 </r>
       <r>   -3.7084    1.0000 </r>
       <r>   -3.5768    1.0000 </r>
       <r>   -3.5167    1.0000 </r>
       <r>   -3.4028    1.0000 </r>
       <r>   -3.3749    1.0000 </r>
       <r>   -3.2893    1.0000 </r>
       <r>   -3.2126    1.0000 </r>
       <r>   -3.2069    1.0000 </r>
       <r>   -3.1882    1.0000 </r>
       <r>   -3.1638    1.0000 </r>
       <r>   -3.0680    1.0000 </r>
[...]
       <r>    10.2394     3.3261   264.8734 </r>
       <r>    10.2517     1.9270   264.8971 </r>
       <r>    10.2640    13.1273   265.0586 </r>
       <r>    10.2763    23.2864   265.3450 </r>
       <r>    10.2886    22.4187   265.6208 </r>
       <r>    10.3009    10.0145   265.7440 </r>
       <r>    10.3132     0.4955   265.7500 </r>
       <r>    10.3255     0.9025   265.7612 </r>
       <r>    10.3378    11.2576   265.8996 </r>
       <r>    10.3501    15.7990   266.0940 </r>
       <r>    10.3624     8.9073   266.2035 </r>
       <r>    10.3747    12.2295   266.3540 </r>
       <r>    10.3870     6.8474   266.4382 </r>
       <r>    10.3993     4.6276   266.4951 </r>
       <r>    10.4116     0.3956   266.5000 </r>
       <r>    10.4239     0.0024   266.5000 </r>
       <r>    10.4362     0.0581   266.5007 </r>
       <r>    10.4485     3.0819   266.5386 </r>
       <r>    10.4608    16.8403   266.7458 </r>
       <r>    10.4731    20.8396   267.0021 </r>
       <r>    10.4854    15.7084   267.1953 </r>
       <r>    10.4977     4.3189   267.2485 </r>
       <r>    10.5100     0.2845   267.2520 </r>
       <r>    10.5223     4.8940   267.3122 </r>
       <r>    10.5346    12.3577   267.4642 </r>
       <r>    10.5469     4.5902   267.5206 </r>
       <r>    10.5592    11.1849   267.6582 </r>
       <r>    10.5715    14.1295   267.8320 </r>
       <r>    10.5838    11.5495   267.9741 </r>
       <r>    10.5961    19.4367   268.2131 </r>
       <r>    10.6084    16.6860   268.4184 </r>
       <r>    10.6207     6.3490   268.4965 </r>
       <r>    10.6330     0.7559   268.5058 </r>
       <r>    10.6453     5.4320   268.5726 </r>
       <r>    10.6576    12.9602   268.7320 </r>
       <r>    10.6699    21.0091   268.9904 </r>
       <r>    10.6822    14.1192   269.1641 </r>
       <r>    10.6945    21.4178   269.4276 </r>
       <r>    10.7068    20.0476   269.6742 </r>
       <r>    10.7191     5.8945   269.7467 </r>
       <r>    10.7314     0.4895   269.7527 </r>
       <r>    10.7437     3.7379   269.7987 </r>
       <r>    10.7560     5.7582   269.8695 </r>
       <r>    10.7683     7.4360   269.9610 </r>
       <r>    10.7806    18.4963   270.1885 </r>
       <r>    10.7929    21.5989   270.4542 </r>
       <r>    10.8052    26.7268   270.7829 </r>
       <r>    10.8175    18.3983   271.0092 </r>
       <r>    10.8298    42.0145   271.5260 </r>
       <r>    10.8421    39.4038   272.0107 </r>
       <r>    10.8544     9.4261   272.1267 </r>
       <r>    10.8667     5.1352   272.1898 </r>
       <r>    10.8790     4.5161   272.2454 </r>
       <r>    10.8913     0.5236   272.2518 </r>
       <r>    10.9036     4.7776   272.3106 </r>
       <r>    10.9159    12.7235   272.4671 </r>
       <r>    10.9282    10.2661   272.5934 </r>
       <r>    10.9405    16.6599   272.7983 </r>
       <r>    10.9528    11.4193   272.9388 </r>
       <r>    10.9651    15.9013   273.1344 </r>
       <r>    10.9774    34.5447   273.5593 </r>
       <r>    10.9897    45.7666   274.1222 </r>
       <r>    11.0020    27.8191   274.4644 </r>
       <r>    11.0143     2.8663   274.4997 </r>
       <r>    11.0266     0.1239   274.5012 </r>
       <r>    11.0389     3.6397   274.5460 </r>
       <r>    11.0512    20.4523   274.7975 </r>
       <r>    11.0635    29.9655   275.1661 </r>
       <r>    11.0758    24.3632   275.4658 </r>
       <r>    11.0881    20.4706   275.7176 </r>
       <r>    11.1004     2.6044   275.7497 </r>
       <r>    11.1127     0.0287   275.7500 </r>
       <r>    11.1250     0.1393   275.7517 </r>
       <r>    11.1373     4.8735   275.8117 </r>
       <r>    11.1496    25.4997   276.1253 </r>
       <r>    11.1619    26.3350   276.4493 </r>
       <r>    11.1742     4.6746   276.5068 </r>
       <r>    11.1865    11.8456   276.6525 </r>
       <r>    11.1988    27.3018   276.9883 </r>
       <r>    11.2111    37.7746   277.4529 </r>
       <r>    11.2234    42.1153   277.9710 </r>
       <r>    11.2357    19.0493   278.2053 </r>
       <r>    11.2480     4.2122   278.2571 </r>
       <r>    11.2603     9.3582   278.3722 </r>
       <r>    11.2726    20.2973   278.6219 </r>
       <r>    11.2849    19.8598   278.8662 </r>
       <r>    11.2972    16.7196   279.0718 </r>
       <r>    11.3095    21.3783   279.3348 </r>
       <r>    11.3218    19.5776   279.5756 </r>
       <r>    11.3341    10.1980   279.7011 </r>
       <r>    11.3464     3.9674   279.7499 </r>
       <r>    11.3587     5.2160   279.8140 </r>
       <r>    11.3710    12.0829   279.9626 </r>
       <r>    11.3833     3.5430   280.0062 </r>
       <r>    11.3956     8.2682   280.1079 </r>
       <r>    11.4079    10.3589   280.2354 </r>
       <r>    11.4202     1.1811   280.2499 </r>
       <r>    11.4325     0.0096   280.2500 </r>
       <r>    11.4448     0.0000   280.2500 </r>
       <r>    11.4571     0.0000   280.2500 </r>
       <r>    11.4694     0.0131   280.2502 </r>
       <r>    11.4817     1.4197   280.2676 </r>
       <r>    11.4940    13.0617   280.4283 </r>
       <r>    11.5063    27.2578   280.7636 </r>
       <r>    11.5186    17.7120   280.9814 </r>
       <r>    11.5309     1.9454   281.0054 </r>
       <r>    11.5432     7.5916   281.0988 </r>
       <r>    11.5555    16.0396   281.2961 </r>
       <r>    11.5678    13.7808   281.4656 </r>
       <r>    11.5801     2.7528   281.4994 </r>
       <r>    11.5924     0.0532   281.5001 </r>
       <r>    11.6047     0.9774   281.5121 </r>
       <r>    11.6170    12.3370   281.6639 </r>
       <r>    11.6293    20.8725   281.9206 </r>
       <r>    11.6416     6.2119   281.9970 </r>
       <r>    11.6539     0.2427   282.0000 </r>
       <r>    11.6662     0.0011   282.0000 </r>
       <r>    11.6785     0.1422   282.0018 </r>
       <r>    11.6908     4.3129   282.0548 </r>
       <r>    11.7031    12.1344   282.2041 </r>
       <r>    11.7154     3.6352   282.2488 </r>
       <r>    11.7277     0.0991   282.2500 </r>
       <r>    11.7400     0.0002   282.2500 </r>
       <r>    11.7523     0.0000   282.2500 </r>
       <r>    11.7646     0.0000   282.2500 </r>
       <r>    11.7769     0.0006   282.2500 </r>
       <r>    11.7893     0.2017   282.2525 </r>
       <r>    11.8016     5.0322   282.3144 </r>
       <r>    11.8139    11.9667   282.4616 </r>
       <r>    11.8262     3.2401   282.5014 </r>
       <r>    11.8385     4.8066   282.5606 </r>
       <r>    11.8508    11.9675   282.7078 </r>
       <r>    11.8631     6.1676   282.7836 </r>
       <r>    11.8754    12.1501   282.9331 </r>
       <r>    11.8877     5.2363   282.9975 </r>
       <r>    11.9000     0.2030   283.0000 </r>
       <r>    11.9123     0.0006   283.0000 </r>
       <r>    11.9246     0.0000   283.0000 </r>
       <r>    11.9369     0.0308   283.0004 </r>
       <r>    11.9492     2.0296   283.0253 </r>
       <r>    11.9615    14.0509   283.1982 </r>
       <r>    11.9738    22.6244   283.4765 </r>
       <r>    11.9861    18.0256   283.6982 </r>
       <r>    11.9984     4.1130   283.7488 </r>
       <r>    12.0107     0.1509   283.7506 </r>
       <r>    12.0230     2.8936   283.7862 </r>
       <r>    12.0353    12.3282   283.9379 </r>
       <r>    12.0476     4.8910   283.9980 </r>
       <r>    12.0599     0.1587   284.0000 </r>
       <r>    12.0722     0.0004   284.0000 </r>
       <r>    12.0845     0.0388   284.0005 </r>
       <r>    12.0968     2.1593   284.0270 </r>
       <r>    12.1091    11.1039   284.1636 </r>
       <r>    12.1214     6.6173   284.2450 </r>
       <r>    12.1337     1.8371   284.2676 </r>
       <r>    12.1460    10.4477   284.3961 </r>
       <r>    12.1583     7.8932   284.4932 </r>
       <r>    12.1706     2.7535   284.5271 </r>
       <r>    12.1829    11.7132   284.6712 </r>
       <r>    12.1952     9.3270   284.7859 </r>
       <r>    12.2075    20.5680   285.0389 </r>
       <r>    12.2198    15.7260   285.2323 </r>
       <r>    12.2321     1.4254   285.2499 </r>
       <r>    12.2444     0.0111   285.2500 </r>
       <r>    12.2567     0.0000   285.2500 </r>
       <r>    12.2690     0.0291   285.2504 </r>
       <r>    12.2813     1.5406   285.2693 </r>
       <r>    12.2936     7.2612   285.3586 </r>
       <r>    12.3059     8.2553   285.4602 </r>
       <r>    12.3182     3.2887   285.5006 </r>
       <r>    12.3305     5.2684   285.5654 </r>
       <r>    12.3428    12.2160   285.7157 </r>
       <r>    12.3551     2.7414   285.7494 </r>
       <r>    12.3674     0.1473   285.7512 </r>
       <r>    12.3797     3.4784   285.7940 </r>
       <r>    12.3920    11.8667   285.9400 </r>
       <r>    12.4043     4.6923   285.9977 </r>
       <r>    12.4166     0.3059   286.0015 </r>
       <r>    12.4289     3.1660   286.0404 </r>
       <r>    12.4412    11.3792   286.1804 </r>
       <r>    12.4535    16.3222   286.3811 </r>
       <r>    12.4658     8.7974   286.4894 </r>
       <r>    12.4781     0.8577   286.4999 </r>
       <r>    12.4904     0.0079   286.5000 </r>
       <r>    12.5027     0.0029   286.5000 </r>
       <r>    12.5150     0.4416   286.5055 </r>
       <r>    12.5273     4.8739   286.5654 </r>
       <r>    12.5396     7.4400   286.6569 </r>
       <r>    12.5519     6.3892   286.7355 </r>
       <r>    12.5642     1.1600   286.7498 </r>
       <r>    12.5765     0.0181   286.7500 </r>
       <r>    12.5888     0.2756   286.7534 </r>
       <r>    12.6011     4.0692   286.8035 </r>
       <r>    12.6134     5.7846   286.8746 </r>
       <r>    12.6257     5.7408   286.9452 </r>
       <r>    12.6380     4.1879   286.9967 </r>
       <r>    12.6503     2.0313   287.0217 </r>
       <r>    12.6626    10.0208   287.1450 </r>
       <r>    12.6749     8.3388   287.2476 </r>
       <r>    12.6872     8.4856   287.3519 </r>
       <r>    12.6995    10.5142   287.4813 </r>
       <r>    12.7118     1.5048   287.4998 </r>
       <r>    12.7241     0.0181   287.5000 </r>
       <r>    12.7364     0.0000   287.5000 </r>
       <r>    12.7487     0.0000   287.5000 </r>
       <r>    12.7610     0.0000   287.5000 </r>
       <r>    12.7733     0.0000   287.5000 </r>
       <r>    12.7856     0.0000   287.5000 </r>
       <r>    12.7979     0.0282   287.5003 </r>
       <r>    12.8102     1.7065   287.5213 </r>
       <r>    12.8225     9.9623   287.6439 </r>
       <r>    12.8348     7.8341   287.7402 </r>
       <r>    12.8471     0.7865   287.7499 </r>
       <r>    12.8594     0.1016   287.7512 </r>
       <r>    12.8717     3.7039   287.7967 </r>
       <r>    12.8840    12.3349   287.9485 </r>
       <r>    12.8963     4.0749   287.9986 </r>
       <r>    12.9086     0.1155   288.0000 </r>
       <r>    12.9209     0.0002   288.0000 </r>
       <r>    12.9332     0.0000   288.0000 </r>
       <r>    12.9455     0.0000   288.0000 </r>
       <r>    12.9578     0.0000   288.0000 </r>
       <r>    12.9701     0.0000   288.0000 </r>
       <r>    12.9824     0.0000   288.0000 </r>
       <r>    12.9947     0.0000   288.0000 </r>
       <r>    13.0070     0.0000   288.0000 </r>
       <r>    13.0193     0.0000   288.0000 </r>
       <r>    13.0316     0.0000   288.0000 </r>
       <r>    13.0439     0.0000   288.0000 </r>
       <r>    13.0562     0.0000   288.0000 </r>
       <r>    13.0685     0.0000   288.0000 </r>
       <r>    13.0808     0.0000   288.0000 </r>
       <r>    13.0931     0.0000   288.0000 </r>
       <r>    13.1054     0.0000   288.0000 </r>
       <r>    13.1177     0.0000   288.0000 </r>
       <r>    13.1300     0.0000   288.0000 </r>
       <r>    13.1423     0.0000   288.0000 </r>
       <r>    13.1546     0.0000   288.0000 </r>
       <r>    13.1669     0.0000   288.0000 </r>
       <r>    13.1792     0.0000   288.0000 </r>
       <r>    13.1915     0.0000   288.0000 </r>
       <r>    13.2038     0.0000   288.0000 </r>
       <r>    13.2161     0.0000   288.0000 </r>
       <r>    13.2284     0.0000   288.0000 </r>
       <r>    13.2407     0.0000   288.0000 </r>
       <r>    13.2530     0.0000   288.0000 </r>
       <r>    13.2653     0.0000   288.0000 </r>
       <r>    13.2776     0.0000   288.0000 </r>
       <r>    13.2899     0.0000   288.0000 </r>
       <r>    13.3022     0.0000   288.0000 </r>
       <r>    13.3145     0.0000   288.0000 </r>
       <r>    13.3268     0.0000   288.0000 </r>
       <r>    13.3391     0.0000   288.0000 </r>
       <r>    13.3514     0.0000   288.0000 </r>
       <r>    13.3637     0.0000   288.0000 </r>
       <r>    13.3760     0.0000   288.0000 </r>
       <r>    13.3883     0.0000   288.0000 </r>
       <r>    13.4006     0.0000   288.0000 </r>
       <r>    13.4129     0.0000   288.0000 </r>
       <r>    13.4252     0.0000   288.0000 </r>
       <r>    13.4375     0.0000   288.0000 </r>
       <r>    13.4498     0.0000   288.0000 </r>
       <r>    13.4621     0.0000   288.0000 </r>
       <r>    13.4744     0.0000   288.0000 </r>
       <r>    13.4867     0.0000   288.0000 </r>
       <r>    13.4990     0.0000   288.0000 </r>
       <r>    13.5113     0.0000   288.0000 </r>
       <r>    13.5236     0.0000   288.0000 </r>
       <r>    13.5359     0.0000   288.0000 </r>
       <r>    13.5482     0.0000   288.0000 </r>
       <r>    13.5605     0.0000   288.0000 </r>
       <r>    13.5728     0.0000   288.0000 </r>
       <r>    13.5851     0.0000   288.0000 </r>
       <r>    13.5974     0.0000   288.0000 </r>
       <r>    13.6097     0.0000   288.0000 </r>
       <r>    13.6220     0.0000   288.0000 </r>
       <r>    13.6343     0.0000   288.0000 </r>
       <r>    13.6466     0.0000   288.0000 </r>
       <r>    13.6589     0.0000   288.0000 </r>
       <r>    13.6712     0.0000   288.0000 </r>
       <r>    13.6835     0.0000   288.0000 </r>
       <r>    13.6958     0.0000   288.0000 </r>
       <r>    13.7081     0.0000   288.0000 </r>
       <r>    13.7204     0.0000   288.0000 </r>
       <r>    13.7327     0.0000   288.0000 </r>
       <r>    13.7450     0.0000   288.0000 </r>
       <r>    13.7573     0.0000   288.0000 </r>
       <r>    13.7696     0.0000   288.0000 </r>
       <r>    13.7819     0.0000   288.0000 </r>
       <r>    13.7942     0.0000   288.0000 </r>
       <r>    13.8065     0.0000   288.0000 </r>
       <r>    13.8188     0.0000   288.0000 </r>
       <r>    13.8311     0.0000   288.0000 </r>
       <r>    13.8434     0.0000   288.0000 </r>
       <r>    13.8557     0.0000   288.0000 </r>
       <r>    13.8680     0.0000   288.0000 </r>
       <r>    13.8803     0.0000   288.0000 </r>
       <r>    13.8926     0.0000   288.0000 </r>
       <r>    13.9049     0.0000   288.0000 </r>
       <r>    13.9172     0.0000   288.0000 </r>
       <r>    13.9295     0.0000   288.0000 </r>
       <r>    13.9418     0.0000   288.0000 </r>
       <r>    13.9541     0.0000   288.0000 </r>
       <r>    13.9664     0.0000   288.0000 </r>
       <r>    13.9787     0.0000   288.0000 </r>
       <r>    13.9910     0.0000   288.0000 </r>
       <r>    14.0033     0.0000   288.0000 </r>
       <r>    14.0156     0.0000   288.0000 </r>
       <r>    14.0279     0.0000   288.0000 </r>
       <r>    14.0403     0.0000   288.0000 </r>
       <r>    14.0526     0.0000   288.0000 </r>
       <r>    14.0649     0.0000   288.0000 </r>
       <r>    14.0772     0.0000   288.0000 </r>
       <r>    14.0895     0.0000   288.0000 </r>
       <r>    14.1018     0.0000   288.0000 </r>
       <r>    14.1141     0.0000   288.0000 </r>
       <r>    14.1264     0.0000   288.0000 </r>
       <r>    14.1387     0.0000   288.0000 </r>
       <r>    14.1510     0.0000   288.0000 </r>
       <r>    14.1633     0.0000   288.0000 </r>
       <r>    14.1756     0.0000   288.0000 </r>
       <r>    14.1879     0.0000   288.0000 </r>
       <r>    14.2002     0.0000   288.0000 </r>
       <r>    14.2125     0.0000   288.0000 </r>
       <r>    14.2248     0.0000   288.0000 </r>
       <r>    14.2371     0.0000   288.0000 </r>
       <r>    14.2494     0.0000   288.0000 </r>
       <r>    14.2617     0.0000   288.0000 </r>
       <r>    14.2740     0.0000   288.0000 </r>
       <r>    14.2863     0.0000   288.0000 </r>
       <r>    14.2986     0.0000   288.0000 </r>
       <r>    14.3109     0.0000   288.0000 </r>
       <r>    14.3232     0.0000   288.0000 </r>
       <r>    14.3355     0.0000   288.0000 </r>
       <r>    14.3478     0.0000   288.0000 </r>
       <r>    14.3601     0.0000   288.0000 </r>
       <r>    14.3724     0.0000   288.0000 </r>
       <r>    14.3847     0.0000   288.0000 </r>
       <r>    14.3970     0.0000   288.0000 </r>
       <r>    14.4093     0.0000   288.0000 </r>
       <r>    14.4216     0.0000   288.0000 </r>
       <r>    14.4339     0.0000   288.0000 </r>
       <r>    14.4462     0.0000   288.0000 </r>
       <r>    14.4585     0.0000   288.0000 </r>
       <r>    14.4708     0.0000   288.0000 </r>
       <r>    14.4831     0.0000   288.0000 </r>
       <r>    14.4954     0.0000   288.0000 </r>
       <r>    14.5077     0.0000   288.0000 </r>
       <r>    14.5200     0.0000   288.0000 </r>
       <r>    14.5323     0.0000   288.0000 </r>
       <r>    14.5446     0.0000   288.0000 </r>
       <r>    14.5569     0.0000   288.0000 </r>
      </set>
     </set>
    </array>
   </total>
  </dos>
 </calculation>
 <structure name="finalpos" >
  <crystal>
   <varray name="basis" >
    <v>       7.40769148      -0.00000447       0.04774419 </v>
    <v>      -0.00000241       7.63362109       0.00000230 </v>
    <v>      -0.06996577       0.00000234       7.79368924 </v>
   </varray>
   <i name="volume">    440.73921908 </i>
   <varray name="rec_basis" >
    <v>       0.13498701       0.00000004       0.00121181 </v>
    <v>       0.00000008       0.13099943      -0.00000004 </v>
    <v>      -0.00082693      -0.00000004       0.12830152 </v>
   </varray>
  </crystal>
  <varray name="positions" >
   <v>       0.24871895       0.52919760       0.21843662 </v>
   <v>       0.25128043       0.02919740       0.28156330 </v>
   <v>       0.74871958       0.97080260       0.71843670 </v>
   <v>       0.75128105       0.47080240       0.78156338 </v>
   <v>       0.25135350       0.53115305       0.71951782 </v>
   <v>       0.24864429       0.03115295       0.78048239 </v>
   <v>       0.75135570       0.96884705       0.21951761 </v>
   <v>       0.74864651       0.46884695       0.28048219 </v>
   <v>       0.50027487       0.51805216       0.26406055 </v>
   <v>       0.99972547       0.01805187       0.23593613 </v>
   <v>       0.00027453       0.98194810       0.76406387 </v>
   <v>       0.49972513       0.48194781       0.73593945 </v>
   <v>       0.49966006       0.98155846       0.26327994 </v>
   <v>       0.00033999       0.48155832       0.23672376 </v>
   <v>       0.99966001       0.51844171       0.76327624 </v>
   <v>       0.50033993       0.01844157       0.73672006 </v>
   <v>       0.23169293       0.76001049       0.23643129 </v>
   <v>       0.26830763       0.26001028       0.26356826 </v>
   <v>       0.73169233       0.73998972       0.73643175 </v>
   <v>       0.76830709       0.23998951       0.76356870 </v>
   <v>       0.26931988       0.76019055       0.75355265 </v>
   <v>       0.23068075       0.26019057       0.74644692 </v>
   <v>       0.76931922       0.73980942       0.25355307 </v>
   <v>       0.73068014       0.23980945       0.24644736 </v>
   <v>       0.23564171       0.52291051       0.49543574 </v>
   <v>       0.26436217       0.02291065       0.00456394 </v>
   <v>       0.73563783       0.97708936       0.99543605 </v>
   <v>       0.76435829       0.47708950       0.50456426 </v>
   <v>       0.23561295       0.00513995       0.50460565 </v>
   <v>       0.26438404       0.50513992       0.99539412 </v>
   <v>       0.73561596       0.49486007       0.00460588 </v>
   <v>       0.76438705       0.99486004       0.49539435 </v>
  </varray>
 </structure>
</modeling>
